<?xml version="1.0" encoding="UTF-8"?>

<!-- generated on пятница, 19 июня 2020 г. 11:40:37 by Eclipse SUMO GUI Version 1.5.0
<configuration xmlns:xsi="http://www.w3.org/2001/XMLSchema-instance" xsi:noNamespaceSchemaLocation="http://sumo.dlr.de/xsd/sumoConfiguration.xsd">

    <input>
        <net-file value="data/osm.net.xml"/>
        <route-files value="data/osm.passenger.trips.xml,data/osm.bus.trips.xml"/>
    </input>

    <output>
        <fcd-output value="results/result_rain.xml"/>
        <tripinfo-output value="tripinfo.xml"/>
    </output>

    <processing>
        <ignore-route-errors value="true"/>
        <collision.mingap-factor value="0"/>
    </processing>

    <routing>
        <device.rerouting.adaptation-steps value="180"/>
    </routing>

    <report>
        <verbose value="true"/>
        <no-warnings value="true"/>
        <duration-log.statistics value="true"/>
        <no-step-log value="true"/>
    </report>

    <traci_server>
        <remote-port value="60714"/>
    </traci_server>

    <gui_only>
        <gui-settings-file value="data/osm.view.xml"/>
    </gui_only>

</configuration>
-->

<tripinfos xmlns:xsi="http://www.w3.org/2001/XMLSchema-instance" xsi:noNamespaceSchemaLocation="http://sumo.dlr.de/xsd/tripinfo_file.xsd">
    <tripinfo id="veh1" depart="4.00" departLane="585506249#0_0" departPos="5.10" departSpeed="26.07" departDelay="-0.52" arrival="41.00" arrivalLane="665146714#4_0" arrivalPos="421.36" arrivalSpeed="20.68" duration="37.00" routeLength="646.87" waitingTime="0.00" waitingCount="0" stopTime="0.00" timeLoss="5.30" rerouteNo="1" devices="tripinfo_veh1 routing_veh1 fcd_veh1" vType="veh_passenger" speedFactor="0.94" vaporized=""/>
    <tripinfo id="bus0" depart="0.00" departLane="-665146714#5_0" departPos="12.10" departSpeed="22.22" departDelay="0.00" arrival="47.00" arrivalLane="99952620#1_1" arrivalPos="63.37" arrivalSpeed="18.69" duration="47.00" routeLength="841.19" waitingTime="0.00" waitingCount="0" stopTime="0.00" timeLoss="10.50" rerouteNo="1" devices="tripinfo_bus0 routing_bus0 fcd_bus0" vType="bus_bus" speedFactor="1.00" vaporized=""/>
    <tripinfo id="veh3" depart="13.00" departLane="665146708_3" departPos="5.10" departSpeed="0.00" departDelay="-0.56" arrival="80.00" arrivalLane="665146714#4_0" arrivalPos="421.36" arrivalSpeed="23.62" duration="67.00" routeLength="740.12" waitingTime="16.00" waitingCount="1" stopTime="0.00" timeLoss="34.18" rerouteNo="1" devices="tripinfo_veh3 routing_veh3 fcd_veh3" vType="veh_passenger" speedFactor="1.08" vaporized=""/>
    <tripinfo id="veh0" depart="0.00" departLane="-99952877_0" departPos="4.06" departSpeed="0.00" departDelay="0.00" arrival="81.00" arrivalLane="127497306#3_0" arrivalPos="463.62" arrivalSpeed="29.39" duration="81.00" routeLength="596.21" waitingTime="46.00" waitingCount="1" stopTime="0.00" timeLoss="58.29" rerouteNo="1" devices="tripinfo_veh0 routing_veh0 fcd_veh0" vType="veh_passenger" speedFactor="1.06" vaporized=""/>
    <tripinfo id="veh2" depart="9.00" departLane="-23559783_1" departPos="5.10" departSpeed="28.07" departDelay="-0.04" arrival="82.00" arrivalLane="127497306#3_1" arrivalPos="463.62" arrivalSpeed="28.01" duration="73.00" routeLength="791.24" waitingTime="26.00" waitingCount="1" stopTime="0.00" timeLoss="42.11" rerouteNo="1" devices="tripinfo_veh2 routing_veh2 fcd_veh2" vType="veh_passenger" speedFactor="1.01" vaporized=""/>
    <tripinfo id="veh7" depart="31.00" departLane="-665146715_0" departPos="5.10" departSpeed="12.31" departDelay="-0.64" arrival="86.00" arrivalLane="127497306#3_0" arrivalPos="463.62" arrivalSpeed="24.11" duration="55.00" routeLength="629.52" waitingTime="13.00" waitingCount="1" stopTime="0.00" timeLoss="25.07" rerouteNo="1" devices="tripinfo_veh7 routing_veh7 fcd_veh7" vType="veh_passenger" speedFactor="0.89" vaporized=""/>
    <tripinfo id="veh5" depart="22.00" departLane="665146708_3" departPos="5.10" departSpeed="0.00" departDelay="-0.60" arrival="92.00" arrivalLane="665146714#4_0" arrivalPos="421.36" arrivalSpeed="18.01" duration="70.00" routeLength="740.12" waitingTime="8.00" waitingCount="1" stopTime="0.00" timeLoss="26.43" rerouteNo="1" devices="tripinfo_veh5 routing_veh5 fcd_veh5" vType="veh_passenger" speedFactor="0.83" vaporized=""/>
    <tripinfo id="veh12" depart="54.00" departLane="45014977_0" departPos="0.20" departSpeed="0.00" departDelay="-0.25" arrival="99.00" arrivalLane="665146714#4_0" arrivalPos="421.36" arrivalSpeed="22.97" duration="45.00" routeLength="763.12" waitingTime="0.00" waitingCount="0" stopTime="0.00" timeLoss="10.66" rerouteNo="1" devices="tripinfo_veh12 routing_veh12 fcd_veh12" vType="veh_passenger" speedFactor="1.05" vaporized=""/>
    <tripinfo id="veh6" depart="27.00" departLane="585506249#0_1" departPos="5.10" departSpeed="29.05" departDelay="-0.12" arrival="107.00" arrivalLane="-77856541#0_0" arrivalPos="105.43" arrivalSpeed="23.00" duration="80.00" routeLength="352.98" waitingTime="51.00" waitingCount="1" stopTime="0.00" timeLoss="65.40" rerouteNo="1" devices="tripinfo_veh6 routing_veh6 fcd_veh6" vType="veh_passenger" speedFactor="1.05" vaporized=""/>
    <tripinfo id="veh24" depart="108.00" departLane="221348491#0_0" departPos="0.10" departSpeed="0.00" departDelay="-0.49" arrival="142.00" arrivalLane="665146714#4_0" arrivalPos="421.36" arrivalSpeed="18.06" duration="34.00" routeLength="522.62" waitingTime="0.00" waitingCount="0" stopTime="0.00" timeLoss="4.60" rerouteNo="1" devices="tripinfo_veh24 routing_veh24 fcd_veh24" vType="veh_passenger" speedFactor="0.83" vaporized=""/>
    <tripinfo id="veh11" depart="49.00" departLane="-665146714#5_0" departPos="5.10" departSpeed="22.80" departDelay="-0.72" arrival="155.00" arrivalLane="23559783_1" arrivalPos="74.92" arrivalSpeed="18.90" duration="106.00" routeLength="846.50" waitingTime="51.00" waitingCount="1" stopTime="0.00" timeLoss="69.64" rerouteNo="1" devices="tripinfo_veh11 routing_veh11 fcd_veh11" vType="veh_passenger" speedFactor="1.03" vaporized=""/>
    <tripinfo id="veh18" depart="81.00" departLane="77856541#0_0" departPos="5.10" departSpeed="20.80" departDelay="-0.37" arrival="176.00" arrivalLane="99952620#1_0" arrivalPos="63.37" arrivalSpeed="20.27" duration="95.00" routeLength="357.62" waitingTime="59.00" waitingCount="2" stopTime="0.00" timeLoss="78.41" rerouteNo="1" devices="tripinfo_veh18 routing_veh18 fcd_veh18" vType="veh_passenger" speedFactor="0.94" vaporized=""/>
    <tripinfo id="veh14" depart="63.00" departLane="665146713_0" departPos="5.10" departSpeed="0.00" departDelay="-0.29" arrival="209.00" arrivalLane="127497306#3_1" arrivalPos="463.62" arrivalSpeed="27.04" duration="146.00" routeLength="686.52" waitingTime="102.00" waitingCount="1" stopTime="0.00" timeLoss="118.26" rerouteNo="1" devices="tripinfo_veh14 routing_veh14 fcd_veh14" vType="veh_passenger" speedFactor="0.99" vaporized=""/>
    <tripinfo id="veh21" depart="94.00" departLane="127497306#0_2" departPos="5.10" departSpeed="0.00" departDelay="-0.93" arrival="209.00" arrivalLane="127497306#3_2" arrivalPos="463.62" arrivalSpeed="27.00" duration="115.00" routeLength="511.63" waitingTime="85.00" waitingCount="1" stopTime="0.00" timeLoss="96.45" rerouteNo="1" devices="tripinfo_veh21 routing_veh21 fcd_veh21" vType="veh_passenger" speedFactor="1.01" vaporized=""/>
    <tripinfo id="veh16" depart="72.00" departLane="45014977_0" departPos="0.20" departSpeed="0.00" departDelay="-0.33" arrival="211.00" arrivalLane="127497306#3_0" arrivalPos="463.62" arrivalSpeed="23.88" duration="139.00" routeLength="562.99" waitingTime="102.00" waitingCount="1" stopTime="0.00" timeLoss="115.00" rerouteNo="1" devices="tripinfo_veh16 routing_veh16 fcd_veh16" vType="veh_passenger" speedFactor="0.88" vaporized=""/>
    <tripinfo id="veh10" depart="45.00" departLane="123936943#0_0" departPos="5.10" departSpeed="14.92" departDelay="-0.20" arrival="212.00" arrivalLane="127497306#3_1" arrivalPos="463.62" arrivalSpeed="25.56" duration="167.00" routeLength="752.57" waitingTime="101.00" waitingCount="3" stopTime="0.00" timeLoss="140.25" rerouteNo="1" devices="tripinfo_veh10 routing_veh10 fcd_veh10" vType="veh_passenger" speedFactor="1.09" vaporized=""/>
    <tripinfo id="veh15" depart="67.00" departLane="-665146715_0" departPos="5.10" departSpeed="12.87" departDelay="-0.81" arrival="212.00" arrivalLane="127497306#3_0" arrivalPos="463.62" arrivalSpeed="25.38" duration="145.00" routeLength="629.52" waitingTime="100.00" waitingCount="2" stopTime="0.00" timeLoss="116.65" rerouteNo="1" devices="tripinfo_veh15 routing_veh15 fcd_veh15" vType="veh_passenger" speedFactor="0.93" vaporized=""/>
    <tripinfo id="veh17" depart="76.00" departLane="123936943#0_0" departPos="5.10" departSpeed="14.92" departDelay="-0.85" arrival="212.00" arrivalLane="127497306#3_2" arrivalPos="463.62" arrivalSpeed="25.42" duration="136.00" routeLength="753.31" waitingTime="83.00" waitingCount="1" stopTime="0.00" timeLoss="105.05" rerouteNo="1" devices="tripinfo_veh17 routing_veh17 fcd_veh17" vType="veh_passenger" speedFactor="0.94" vaporized=""/>
    <tripinfo id="veh20" depart="90.00" departLane="665146713_0" departPos="5.10" departSpeed="0.00" departDelay="-0.41" arrival="213.00" arrivalLane="127497306#3_2" arrivalPos="463.62" arrivalSpeed="27.74" duration="123.00" routeLength="686.52" waitingTime="73.00" waitingCount="1" stopTime="0.00" timeLoss="95.57" rerouteNo="1" devices="tripinfo_veh20 routing_veh20 fcd_veh20" vType="veh_passenger" speedFactor="1.02" vaporized=""/>
    <tripinfo id="veh33" depart="187.00" departLane="127497306#0_0" departPos="5.10" departSpeed="0.00" departDelay="37.83" arrival="214.00" arrivalLane="127497306#3_0" arrivalPos="463.62" arrivalSpeed="27.97" duration="27.00" routeLength="511.63" waitingTime="0.00" waitingCount="0" stopTime="0.00" timeLoss="10.51" rerouteNo="1" devices="tripinfo_veh33 routing_veh33 fcd_veh33" vType="veh_passenger" speedFactor="1.17" vaporized=""/>
    <tripinfo id="veh13" depart="58.00" departLane="123936943#0_0" departPos="5.10" departSpeed="14.92" departDelay="-0.77" arrival="215.00" arrivalLane="127497306#3_2" arrivalPos="463.62" arrivalSpeed="30.19" duration="157.00" routeLength="752.57" waitingTime="95.00" waitingCount="3" stopTime="0.00" timeLoss="130.71" rerouteNo="1" devices="tripinfo_veh13 routing_veh13 fcd_veh13" vType="veh_passenger" speedFactor="1.12" vaporized=""/>
    <tripinfo id="veh22" depart="99.00" departLane="-221348491#0_0" departPos="0.11" departSpeed="0.00" departDelay="-0.45" arrival="215.00" arrivalLane="127497306#3_0" arrivalPos="463.62" arrivalSpeed="26.11" duration="116.00" routeLength="578.83" waitingTime="80.00" waitingCount="1" stopTime="0.00" timeLoss="92.73" rerouteNo="1" devices="tripinfo_veh22 routing_veh22 fcd_veh22" vType="veh_passenger" speedFactor="0.98" vaporized=""/>
    <tripinfo id="veh40" depart="180.00" departLane="665146709_0" departPos="5.10" departSpeed="0.00" departDelay="-0.82" arrival="215.00" arrivalLane="665146714#4_0" arrivalPos="421.36" arrivalSpeed="21.64" duration="35.00" routeLength="607.70" waitingTime="0.00" waitingCount="0" stopTime="0.00" timeLoss="7.85" rerouteNo="1" devices="tripinfo_veh40 routing_veh40 fcd_veh40" vType="veh_passenger" speedFactor="1.03" vaporized=""/>
    <tripinfo id="veh4" depart="18.00" departLane="77856541#0_0" departPos="5.10" departSpeed="22.89" departDelay="-0.08" arrival="216.00" arrivalLane="127497306#3_2" arrivalPos="463.62" arrivalSpeed="28.29" duration="198.00" routeLength="805.74" waitingTime="141.00" waitingCount="2" stopTime="0.00" timeLoss="165.88" rerouteNo="1" devices="tripinfo_veh4 routing_veh4 fcd_veh4" vType="veh_passenger" speedFactor="1.03" vaporized=""/>
    <tripinfo id="veh26" depart="117.00" departLane="-665146715_0" departPos="5.10" departSpeed="12.74" departDelay="-0.53" arrival="218.00" arrivalLane="127497306#3_1" arrivalPos="463.62" arrivalSpeed="24.29" duration="101.00" routeLength="629.52" waitingTime="61.00" waitingCount="1" stopTime="0.00" timeLoss="72.31" rerouteNo="1" devices="tripinfo_veh26 routing_veh26 fcd_veh26" vType="veh_passenger" speedFactor="0.92" vaporized=""/>
    <tripinfo id="veh29" depart="131.00" departLane="665146712_0" departPos="1.12" departSpeed="0.00" departDelay="-0.09" arrival="219.00" arrivalLane="127497306#3_2" arrivalPos="463.62" arrivalSpeed="24.79" duration="88.00" routeLength="720.34" waitingTime="40.00" waitingCount="1" stopTime="0.00" timeLoss="55.72" rerouteNo="1" devices="tripinfo_veh29 routing_veh29 fcd_veh29" vType="veh_passenger" speedFactor="0.93" vaporized=""/>
    <tripinfo id="veh8" depart="36.00" departLane="-23559783_1" departPos="5.10" departSpeed="22.88" departDelay="-0.16" arrival="220.00" arrivalLane="127497306#3_2" arrivalPos="463.62" arrivalSpeed="25.33" duration="184.00" routeLength="791.24" waitingTime="131.00" waitingCount="2" stopTime="0.00" timeLoss="150.83" rerouteNo="1" devices="tripinfo_veh8 routing_veh8 fcd_veh8" vType="veh_passenger" speedFactor="0.94" vaporized=""/>
    <tripinfo id="veh9" depart="40.00" departLane="-23559783_1" departPos="5.10" departSpeed="20.84" departDelay="-0.68" arrival="223.00" arrivalLane="127497306#3_2" arrivalPos="463.62" arrivalSpeed="23.25" duration="183.00" routeLength="791.24" waitingTime="128.00" waitingCount="2" stopTime="0.00" timeLoss="145.88" rerouteNo="1" devices="tripinfo_veh9 routing_veh9 fcd_veh9" vType="veh_passenger" speedFactor="0.86" vaporized=""/>
    <tripinfo id="veh38" depart="171.00" departLane="585506249#0_1" departPos="5.10" departSpeed="30.62" departDelay="-0.78" arrival="226.00" arrivalLane="127497306#3_2" arrivalPos="463.62" arrivalSpeed="30.55" duration="55.00" routeLength="685.96" waitingTime="16.00" waitingCount="2" stopTime="0.00" timeLoss="31.70" rerouteNo="1" devices="tripinfo_veh38 routing_veh38 fcd_veh38" vType="veh_passenger" speedFactor="1.10" vaporized=""/>
    <tripinfo id="veh27" depart="122.00" departLane="665146708_3" departPos="5.10" departSpeed="0.00" departDelay="-0.05" arrival="230.00" arrivalLane="127497306#3_2" arrivalPos="463.62" arrivalSpeed="26.19" duration="108.00" routeLength="744.73" waitingTime="50.00" waitingCount="2" stopTime="0.00" timeLoss="75.91" rerouteNo="1" devices="tripinfo_veh27 routing_veh27 fcd_veh27" vType="veh_passenger" speedFactor="0.95" vaporized=""/>
    <tripinfo id="veh42" depart="189.00" departLane="585506249#0_1" departPos="5.10" departSpeed="15.64" departDelay="-0.86" arrival="231.00" arrivalLane="127497306#3_2" arrivalPos="463.62" arrivalSpeed="26.43" duration="42.00" routeLength="685.96" waitingTime="0.00" waitingCount="0" stopTime="0.00" timeLoss="19.29" rerouteNo="1" devices="tripinfo_veh42 routing_veh42 fcd_veh42" vType="veh_passenger" speedFactor="1.09" vaporized=""/>
    <tripinfo id="veh43" depart="194.00" departLane="585506249#0_1" departPos="5.10" departSpeed="25.28" departDelay="-0.38" arrival="233.00" arrivalLane="127497306#3_2" arrivalPos="463.62" arrivalSpeed="28.64" duration="39.00" routeLength="685.96" waitingTime="0.00" waitingCount="0" stopTime="0.00" timeLoss="14.48" rerouteNo="1" devices="tripinfo_veh43 routing_veh43 fcd_veh43" vType="veh_passenger" speedFactor="1.04" vaporized=""/>
    <tripinfo id="veh45" depart="203.00" departLane="585506249#0_1" departPos="5.10" departSpeed="28.99" departDelay="-0.42" arrival="234.00" arrivalLane="127497306#3_2" arrivalPos="463.62" arrivalSpeed="28.27" duration="31.00" routeLength="685.96" waitingTime="0.00" waitingCount="0" stopTime="0.00" timeLoss="7.99" rerouteNo="1" devices="tripinfo_veh45 routing_veh45 fcd_veh45" vType="veh_passenger" speedFactor="1.09" vaporized=""/>
    <tripinfo id="bus1" depart="60.00" departLane="-23559783_1" departPos="12.10" departSpeed="17.36" departDelay="-0.27" arrival="238.00" arrivalLane="665146714#4_0" arrivalPos="421.36" arrivalSpeed="21.63" duration="178.00" routeLength="779.63" waitingTime="106.00" waitingCount="2" stopTime="0.00" timeLoss="140.92" rerouteNo="1" devices="tripinfo_bus1 routing_bus1 fcd_bus1" vType="bus_bus" speedFactor="1.00" vaporized=""/>
    <tripinfo id="veh19" depart="85.00" departLane="-23559783_1" departPos="5.10" departSpeed="16.58" departDelay="-0.89" arrival="239.00" arrivalLane="665146714#4_0" arrivalPos="421.36" arrivalSpeed="24.36" duration="154.00" routeLength="786.63" waitingTime="83.00" waitingCount="3" stopTime="0.00" timeLoss="122.23" rerouteNo="1" devices="tripinfo_veh19 routing_veh19 fcd_veh19" vType="veh_passenger" speedFactor="1.16" vaporized=""/>
    <tripinfo id="veh34" depart="153.00" departLane="45014977_0" departPos="0.20" departSpeed="0.00" departDelay="-0.69" arrival="243.00" arrivalLane="665146714#4_0" arrivalPos="421.36" arrivalSpeed="21.49" duration="90.00" routeLength="763.12" waitingTime="36.00" waitingCount="2" stopTime="0.00" timeLoss="54.21" rerouteNo="1" devices="tripinfo_veh34 routing_veh34 fcd_veh34" vType="veh_passenger" speedFactor="0.99" vaporized=""/>
    <tripinfo id="bus3" depart="180.00" departLane="-665146714#5_0" departPos="12.10" departSpeed="22.22" departDelay="-0.82" arrival="252.00" arrivalLane="-77856541#0_0" arrivalPos="105.43" arrivalSpeed="16.67" duration="72.00" routeLength="755.32" waitingTime="6.00" waitingCount="1" stopTime="0.00" timeLoss="37.12" rerouteNo="1" devices="tripinfo_bus3 routing_bus3 fcd_bus3" vType="bus_bus" speedFactor="1.00" vaporized=""/>
    <tripinfo id="veh56" depart="253.00" departLane="-665146715_0" departPos="5.10" departSpeed="12.49" departDelay="-0.14" arrival="289.00" arrivalLane="665146714#4_0" arrivalPos="421.36" arrivalSpeed="19.75" duration="36.00" routeLength="545.78" waitingTime="0.00" waitingCount="0" stopTime="0.00" timeLoss="5.33" rerouteNo="1" devices="tripinfo_veh56 routing_veh56 fcd_veh56" vType="veh_passenger" speedFactor="0.90" vaporized=""/>
    <tripinfo id="veh57" depart="257.00" departLane="221348491#0_0" departPos="0.10" departSpeed="0.00" departDelay="-0.66" arrival="290.00" arrivalLane="665146714#4_0" arrivalPos="421.36" arrivalSpeed="20.81" duration="33.00" routeLength="522.62" waitingTime="0.00" waitingCount="0" stopTime="0.00" timeLoss="12.11" rerouteNo="1" devices="tripinfo_veh57 routing_veh57 fcd_veh57" vType="veh_passenger" speedFactor="1.14" vaporized=""/>
    <tripinfo id="veh30" depart="135.00" departLane="-665146714#5_0" departPos="5.10" departSpeed="26.19" departDelay="-0.61" arrival="298.00" arrivalLane="23559783_1" arrivalPos="74.92" arrivalSpeed="17.77" duration="163.00" routeLength="846.50" waitingTime="92.00" waitingCount="3" stopTime="0.00" timeLoss="131.30" rerouteNo="1" devices="tripinfo_veh30 routing_veh30 fcd_veh30" vType="veh_passenger" speedFactor="1.18" vaporized=""/>
    <tripinfo id="veh32" depart="144.00" departLane="77856541#0_0" departPos="5.10" departSpeed="22.33" departDelay="-0.65" arrival="318.00" arrivalLane="99952620#1_0" arrivalPos="63.37" arrivalSpeed="19.31" duration="174.00" routeLength="357.62" waitingTime="141.00" waitingCount="2" stopTime="0.00" timeLoss="159.59" rerouteNo="1" devices="tripinfo_veh32 routing_veh32 fcd_veh32" vType="veh_passenger" speedFactor="1.01" vaporized=""/>
    <tripinfo id="veh35" depart="158.00" departLane="-665146714#5_0" departPos="5.10" departSpeed="22.66" departDelay="-0.22" arrival="319.00" arrivalLane="99952620#1_1" arrivalPos="63.37" arrivalSpeed="19.51" duration="161.00" routeLength="848.19" waitingTime="93.00" waitingCount="3" stopTime="0.00" timeLoss="124.49" rerouteNo="1" devices="tripinfo_veh35 routing_veh35 fcd_veh35" vType="veh_passenger" speedFactor="1.02" vaporized=""/>
    <tripinfo id="veh66" depart="298.00" departLane="-665146714#5_0" departPos="5.10" departSpeed="20.15" departDelay="-0.35" arrival="322.00" arrivalLane="-665146714#2_0" arrivalPos="12.50" arrivalSpeed="19.49" duration="24.00" routeLength="456.07" waitingTime="0.00" waitingCount="0" stopTime="0.00" timeLoss="0.68" rerouteNo="1" devices="tripinfo_veh66 routing_veh66 fcd_veh66" vType="veh_passenger" speedFactor="0.91" vaporized=""/>
    <tripinfo id="bus2" depart="120.00" departLane="-665146714#5_0" departPos="12.10" departSpeed="22.22" departDelay="-0.54" arrival="344.00" arrivalLane="82011072_0" arrivalPos="36.94" arrivalSpeed="5.48" duration="224.00" routeLength="785.91" waitingTime="146.00" waitingCount="5" stopTime="0.00" timeLoss="186.73" rerouteNo="1" devices="tripinfo_bus2 routing_bus2 fcd_bus2" vType="bus_bus" speedFactor="1.00" vaporized=""/>
    <tripinfo id="veh31" depart="140.00" departLane="123936943#0_0" departPos="5.10" departSpeed="14.92" departDelay="-0.13" arrival="352.00" arrivalLane="127497306#3_2" arrivalPos="463.62" arrivalSpeed="31.62" duration="212.00" routeLength="753.31" waitingTime="152.00" waitingCount="3" stopTime="0.00" timeLoss="186.92" rerouteNo="1" devices="tripinfo_veh31 routing_veh31 fcd_veh31" vType="veh_passenger" speedFactor="1.15" vaporized=""/>
    <tripinfo id="veh37" depart="167.00" departLane="665146714#1_0" departPos="5.10" departSpeed="0.00" departDelay="-0.26" arrival="352.00" arrivalLane="127497306#3_0" arrivalPos="463.62" arrivalSpeed="26.55" duration="185.00" routeLength="667.48" waitingTime="126.00" waitingCount="4" stopTime="0.00" timeLoss="160.93" rerouteNo="1" devices="tripinfo_veh37 routing_veh37 fcd_veh37" vType="veh_passenger" speedFactor="1.18" vaporized=""/>
    <tripinfo id="veh46" depart="207.00" departLane="665146714#2_0" departPos="5.10" departSpeed="0.00" departDelay="-0.94" arrival="352.00" arrivalLane="127497306#3_1" arrivalPos="463.62" arrivalSpeed="27.36" duration="145.00" routeLength="664.20" waitingTime="89.00" waitingCount="2" stopTime="0.00" timeLoss="116.82" rerouteNo="1" devices="tripinfo_veh46 routing_veh46 fcd_veh46" vType="veh_passenger" speedFactor="1.00" vaporized=""/>
    <tripinfo id="veh55" depart="248.00" departLane="585506249#0_1" departPos="5.10" departSpeed="27.67" departDelay="-0.62" arrival="354.00" arrivalLane="127497306#3_1" arrivalPos="463.62" arrivalSpeed="26.46" duration="106.00" routeLength="685.96" waitingTime="69.00" waitingCount="1" stopTime="0.00" timeLoss="80.49" rerouteNo="1" devices="tripinfo_veh55 routing_veh55 fcd_veh55" vType="veh_passenger" speedFactor="1.00" vaporized=""/>
    <tripinfo id="veh58" depart="262.00" departLane="585506249#0_1" departPos="5.10" departSpeed="15.64" departDelay="-0.19" arrival="354.00" arrivalLane="127497306#3_0" arrivalPos="463.62" arrivalSpeed="27.15" duration="92.00" routeLength="685.96" waitingTime="50.00" waitingCount="2" stopTime="0.00" timeLoss="67.83" rerouteNo="1" devices="tripinfo_veh58 routing_veh58 fcd_veh58" vType="veh_passenger" speedFactor="1.02" vaporized=""/>
    <tripinfo id="veh50" depart="227.00" departLane="600437351_0" departPos="5.10" departSpeed="0.00" departDelay="0.98" arrival="357.00" arrivalLane="127497306#3_2" arrivalPos="463.62" arrivalSpeed="23.66" duration="130.00" routeLength="683.06" waitingTime="75.00" waitingCount="1" stopTime="0.00" timeLoss="98.73" rerouteNo="1" devices="tripinfo_veh50 routing_veh50 fcd_veh50" vType="veh_passenger" speedFactor="0.85" vaporized=""/>
    <tripinfo id="veh28" depart="126.00" departLane="123936943#0_0" departPos="5.10" departSpeed="14.92" departDelay="-0.57" arrival="358.00" arrivalLane="127497306#3_2" arrivalPos="463.62" arrivalSpeed="24.63" duration="232.00" routeLength="752.57" waitingTime="164.00" waitingCount="3" stopTime="0.00" timeLoss="206.35" rerouteNo="1" devices="tripinfo_veh28 routing_veh28 fcd_veh28" vType="veh_passenger" speedFactor="1.13" vaporized=""/>
    <tripinfo id="veh59" depart="266.00" departLane="585506249#0_1" departPos="5.10" departSpeed="26.93" departDelay="-0.71" arrival="358.00" arrivalLane="127497306#3_1" arrivalPos="463.62" arrivalSpeed="24.23" duration="92.00" routeLength="685.96" waitingTime="47.00" waitingCount="1" stopTime="0.00" timeLoss="65.82" rerouteNo="1" devices="tripinfo_veh59 routing_veh59 fcd_veh59" vType="veh_passenger" speedFactor="0.97" vaporized=""/>
    <tripinfo id="veh67" depart="330.00" departLane="127497306#0_0" departPos="5.10" departSpeed="0.00" departDelay="27.13" arrival="358.00" arrivalLane="127497306#3_0" arrivalPos="463.62" arrivalSpeed="22.60" duration="28.00" routeLength="511.63" waitingTime="0.00" waitingCount="0" stopTime="0.00" timeLoss="7.39" rerouteNo="1" devices="tripinfo_veh67 routing_veh67 fcd_veh67" vType="veh_passenger" speedFactor="0.91" vaporized=""/>
    <tripinfo id="veh64" depart="289.00" departLane="585506249#0_1" departPos="5.10" departSpeed="26.05" departDelay="-0.31" arrival="359.00" arrivalLane="127497306#3_1" arrivalPos="463.62" arrivalSpeed="25.45" duration="70.00" routeLength="685.96" waitingTime="31.00" waitingCount="1" stopTime="0.00" timeLoss="43.36" rerouteNo="1" devices="tripinfo_veh64 routing_veh64 fcd_veh64" vType="veh_passenger" speedFactor="0.94" vaporized=""/>
    <tripinfo id="veh23" depart="103.00" departLane="123936943#0_0" departPos="5.10" departSpeed="14.92" departDelay="-0.97" arrival="360.00" arrivalLane="127497306#3_2" arrivalPos="463.62" arrivalSpeed="23.92" duration="257.00" routeLength="752.57" waitingTime="183.00" waitingCount="2" stopTime="0.00" timeLoss="224.21" rerouteNo="1" devices="tripinfo_veh23 routing_veh23 fcd_veh23" vType="veh_passenger" speedFactor="0.89" vaporized=""/>
    <tripinfo id="veh73" depart="329.00" departLane="-665146715_0" departPos="5.10" departSpeed="14.66" departDelay="-0.99" arrival="360.00" arrivalLane="665146714#4_0" arrivalPos="421.36" arrivalSpeed="22.44" duration="31.00" routeLength="545.78" waitingTime="0.00" waitingCount="0" stopTime="0.00" timeLoss="5.25" rerouteNo="1" devices="tripinfo_veh73 routing_veh73 fcd_veh73" vType="veh_passenger" speedFactor="1.06" vaporized=""/>
    <tripinfo id="veh65" depart="293.00" departLane="585506249#0_1" departPos="5.10" departSpeed="24.51" departDelay="-0.83" arrival="361.00" arrivalLane="127497306#3_1" arrivalPos="463.62" arrivalSpeed="23.71" duration="68.00" routeLength="685.96" waitingTime="26.00" waitingCount="1" stopTime="0.00" timeLoss="39.30" rerouteNo="1" devices="tripinfo_veh65 routing_veh65 fcd_veh65" vType="veh_passenger" speedFactor="0.88" vaporized=""/>
    <tripinfo id="veh49" depart="221.00" departLane="123936943#0_0" departPos="5.10" departSpeed="14.21" departDelay="-0.50" arrival="362.00" arrivalLane="127497306#3_2" arrivalPos="463.62" arrivalSpeed="22.94" duration="141.00" routeLength="753.31" waitingTime="71.00" waitingCount="1" stopTime="0.00" timeLoss="106.99" rerouteNo="1" devices="tripinfo_veh49 routing_veh49 fcd_veh49" vType="veh_passenger" speedFactor="0.85" vaporized=""/>
    <tripinfo id="veh44" depart="198.00" departLane="123936943#0_0" departPos="5.10" departSpeed="12.56" departDelay="-0.90" arrival="363.00" arrivalLane="127497306#3_2" arrivalPos="463.62" arrivalSpeed="24.82" duration="165.00" routeLength="752.57" waitingTime="95.00" waitingCount="4" stopTime="0.00" timeLoss="137.39" rerouteNo="1" devices="tripinfo_veh44 routing_veh44 fcd_veh44" vType="veh_passenger" speedFactor="1.04" vaporized=""/>
    <tripinfo id="veh70" depart="316.00" departLane="585506249#0_1" departPos="5.10" departSpeed="28.42" departDelay="-0.43" arrival="363.00" arrivalLane="127497306#3_1" arrivalPos="463.62" arrivalSpeed="23.74" duration="47.00" routeLength="685.96" waitingTime="7.00" waitingCount="1" stopTime="0.00" timeLoss="22.60" rerouteNo="1" devices="tripinfo_veh70 routing_veh70 fcd_veh70" vType="veh_passenger" speedFactor="1.02" vaporized=""/>
    <tripinfo id="veh25" depart="113.00" departLane="-23559783_1" departPos="5.10" departSpeed="14.70" departDelay="-0.01" arrival="365.00" arrivalLane="127497306#3_2" arrivalPos="463.62" arrivalSpeed="23.36" duration="252.00" routeLength="791.24" waitingTime="188.00" waitingCount="3" stopTime="0.00" timeLoss="215.78" rerouteNo="1" devices="tripinfo_veh25 routing_veh25 fcd_veh25" vType="veh_passenger" speedFactor="0.87" vaporized=""/>
    <tripinfo id="veh36" depart="162.00" departLane="-23559783_1" departPos="5.10" departSpeed="21.26" departDelay="-0.74" arrival="366.00" arrivalLane="127497306#3_2" arrivalPos="463.62" arrivalSpeed="26.56" duration="204.00" routeLength="791.24" waitingTime="148.00" waitingCount="2" stopTime="0.00" timeLoss="171.63" rerouteNo="1" devices="tripinfo_veh36 routing_veh36 fcd_veh36" vType="veh_passenger" speedFactor="0.97" vaporized=""/>
    <tripinfo id="veh39" depart="176.00" departLane="-23559783_1" departPos="5.10" departSpeed="19.76" departDelay="-0.30" arrival="368.00" arrivalLane="127497306#3_2" arrivalPos="463.62" arrivalSpeed="24.30" duration="192.00" routeLength="791.24" waitingTime="134.00" waitingCount="2" stopTime="0.00" timeLoss="156.86" rerouteNo="1" devices="tripinfo_veh39 routing_veh39 fcd_veh39" vType="veh_passenger" speedFactor="0.90" vaporized=""/>
    <tripinfo id="veh51" depart="230.00" departLane="-23559783_1" departPos="5.10" departSpeed="18.26" departDelay="-0.54" arrival="369.00" arrivalLane="127497306#3_2" arrivalPos="463.62" arrivalSpeed="26.25" duration="139.00" routeLength="791.24" waitingTime="82.00" waitingCount="2" stopTime="0.00" timeLoss="112.19" rerouteNo="1" devices="tripinfo_veh51 routing_veh51 fcd_veh51" vType="veh_passenger" speedFactor="1.17" vaporized=""/>
    <tripinfo id="veh41" depart="185.00" departLane="665146708_3" departPos="5.10" departSpeed="0.00" departDelay="-0.34" arrival="371.00" arrivalLane="127497306#3_2" arrivalPos="463.62" arrivalSpeed="26.34" duration="186.00" routeLength="744.73" waitingTime="131.00" waitingCount="2" stopTime="0.00" timeLoss="154.54" rerouteNo="1" devices="tripinfo_veh41 routing_veh41 fcd_veh41" vType="veh_passenger" speedFactor="0.96" vaporized=""/>