<?xml version="1.0" encoding="UTF-8"?>

<!-- generated on воскресенье, 14 июня 2020 г. 21:28:14 by Eclipse SUMO GUI Version 1.5.0
<configuration xmlns:xsi="http://www.w3.org/2001/XMLSchema-instance" xsi:noNamespaceSchemaLocation="http://sumo.dlr.de/xsd/sumoConfiguration.xsd">

    <input>
        <net-file value="data/models/YarCircle/osm.net.xml"/>
        <route-files value="data/models/YarCircle/osm.passenger.trips.xml,data/models/YarCircle/osm.bus.trips.xml"/>
    </input>

    <output>
        <fcd-output value="data/result_rain.xml"/>
        <tripinfo-output value="tripinfo.xml"/>
    </output>

    <processing>
        <ignore-route-errors value="true"/>
        <collision.mingap-factor value="0"/>
    </processing>

    <routing>
        <device.rerouting.adaptation-steps value="180"/>
    </routing>

    <report>
        <verbose value="true"/>
        <no-warnings value="true"/>
        <duration-log.statistics value="true"/>
        <no-step-log value="true"/>
    </report>

    <traci_server>
        <remote-port value="55428"/>
    </traci_server>

    <gui_only>
        <gui-settings-file value="data/models/YarCircle/osm.view.xml"/>
    </gui_only>

</configuration>
-->

<tripinfos xmlns:xsi="http://www.w3.org/2001/XMLSchema-instance" xsi:noNamespaceSchemaLocation="http://sumo.dlr.de/xsd/tripinfo_file.xsd">
    <tripinfo id="veh1" depart="4.00" departLane="585506249#0_0" departPos="5.10" departSpeed="26.07" departDelay="-0.52" arrival="40.00" arrivalLane="665146714#4_0" arrivalPos="421.36" arrivalSpeed="21.70" duration="36.00" routeLength="646.87" waitingTime="0.00" waitingCount="0" stopTime="0.00" timeLoss="5.57" rerouteNo="1" devices="tripinfo_veh1 routing_veh1 fcd_veh1" vType="veh_passenger@veh1" speedFactor="1.00" vaporized=""/>
    <tripinfo id="veh0" depart="0.00" departLane="-99952877_0" departPos="4.06" departSpeed="0.00" departDelay="0.00" arrival="83.00" arrivalLane="127497306#3_0" arrivalPos="463.62" arrivalSpeed="27.63" duration="83.00" routeLength="596.21" waitingTime="44.00" waitingCount="1" stopTime="0.00" timeLoss="58.52" rerouteNo="1" devices="tripinfo_veh0 routing_veh0 fcd_veh0" vType="veh_passenger@veh0" speedFactor="1.00" vaporized=""/>
    <tripinfo id="veh2" depart="9.00" departLane="-23559783_1" departPos="5.10" departSpeed="28.07" departDelay="-0.04" arrival="84.00" arrivalLane="127497306#3_1" arrivalPos="463.62" arrivalSpeed="27.26" duration="75.00" routeLength="791.24" waitingTime="23.00" waitingCount="1" stopTime="0.00" timeLoss="42.40" rerouteNo="1" devices="tripinfo_veh2 routing_veh2 fcd_veh2" vType="veh_passenger@veh2" speedFactor="1.00" vaporized=""/>
    <tripinfo id="veh3" depart="13.00" departLane="665146708_3" departPos="5.10" departSpeed="0.00" departDelay="-0.56" arrival="84.00" arrivalLane="665146714#4_0" arrivalPos="421.36" arrivalSpeed="21.37" duration="71.00" routeLength="740.12" waitingTime="14.00" waitingCount="1" stopTime="0.00" timeLoss="33.53" rerouteNo="1" devices="tripinfo_veh3 routing_veh3 fcd_veh3" vType="veh_passenger@veh3" speedFactor="1.00" vaporized=""/>
    <tripinfo id="veh7" depart="31.00" departLane="-665146715_0" departPos="5.10" departSpeed="12.31" departDelay="-0.64" arrival="86.00" arrivalLane="127497306#3_0" arrivalPos="463.62" arrivalSpeed="26.63" duration="55.00" routeLength="629.52" waitingTime="3.00" waitingCount="1" stopTime="0.00" timeLoss="27.34" rerouteNo="1" devices="tripinfo_veh7 routing_veh7 fcd_veh7" vType="veh_passenger@veh7" speedFactor="1.00" vaporized=""/>
    <tripinfo id="veh5" depart="22.00" departLane="665146708_3" departPos="5.10" departSpeed="0.00" departDelay="-0.60" arrival="88.00" arrivalLane="665146714#4_0" arrivalPos="421.36" arrivalSpeed="20.96" duration="66.00" routeLength="740.12" waitingTime="1.00" waitingCount="1" stopTime="0.00" timeLoss="28.77" rerouteNo="1" devices="tripinfo_veh5 routing_veh5 fcd_veh5" vType="veh_passenger@veh5" speedFactor="1.00" vaporized=""/>
    <tripinfo id="veh12" depart="54.00" departLane="45014977_0" departPos="0.20" departSpeed="0.00" departDelay="-0.25" arrival="107.00" arrivalLane="665146714#4_0" arrivalPos="421.36" arrivalSpeed="21.49" duration="53.00" routeLength="763.12" waitingTime="0.00" waitingCount="0" stopTime="0.00" timeLoss="15.02" rerouteNo="1" devices="tripinfo_veh12 routing_veh12 fcd_veh12" vType="veh_passenger@veh12" speedFactor="1.00" vaporized=""/>
    <tripinfo id="veh6" depart="27.00" departLane="585506249#0_1" departPos="5.10" departSpeed="29.05" departDelay="-0.12" arrival="108.00" arrivalLane="-77856541#0_0" arrivalPos="105.43" arrivalSpeed="21.51" duration="81.00" routeLength="352.98" waitingTime="51.00" waitingCount="1" stopTime="0.00" timeLoss="65.55" rerouteNo="1" devices="tripinfo_veh6 routing_veh6 fcd_veh6" vType="veh_passenger@veh6" speedFactor="1.00" vaporized=""/>
    <tripinfo id="veh24" depart="108.00" departLane="221348491#0_0" departPos="0.10" departSpeed="0.00" departDelay="-0.49" arrival="139.00" arrivalLane="665146714#4_0" arrivalPos="421.36" arrivalSpeed="21.81" duration="31.00" routeLength="522.62" waitingTime="0.00" waitingCount="0" stopTime="0.00" timeLoss="6.44" rerouteNo="1" devices="tripinfo_veh24 routing_veh24 fcd_veh24" vType="veh_passenger@veh24" speedFactor="1.00" vaporized=""/>
    <tripinfo id="veh11" depart="49.00" departLane="-665146714#5_0" departPos="5.10" departSpeed="22.80" departDelay="-0.72" arrival="155.00" arrivalLane="23559783_1" arrivalPos="74.92" arrivalSpeed="19.34" duration="106.00" routeLength="846.50" waitingTime="44.00" waitingCount="1" stopTime="0.00" timeLoss="67.51" rerouteNo="1" devices="tripinfo_veh11 routing_veh11 fcd_veh11" vType="veh_passenger@veh11" speedFactor="1.00" vaporized=""/>
    <tripinfo id="veh18" depart="81.00" departLane="77856541#0_0" departPos="5.10" departSpeed="20.80" departDelay="-0.37" arrival="177.00" arrivalLane="99952620#1_0" arrivalPos="63.37" arrivalSpeed="20.91" duration="96.00" routeLength="357.62" waitingTime="55.00" waitingCount="2" stopTime="0.00" timeLoss="79.04" rerouteNo="1" devices="tripinfo_veh18 routing_veh18 fcd_veh18" vType="veh_passenger@veh18" speedFactor="1.00" vaporized=""/>
    <tripinfo id="bus0" depart="0.00" departLane="-665146714#5_0" departPos="12.10" departSpeed="22.22" departDelay="0.00" arrival="182.00" arrivalLane="99952620#1_1" arrivalPos="63.37" arrivalSpeed="12.49" duration="182.00" routeLength="841.19" waitingTime="110.00" waitingCount="2" stopTime="0.00" timeLoss="143.09" rerouteNo="1" devices="tripinfo_bus0 routing_bus0 fcd_bus0" vType="bus_bus@bus0" speedFactor="1.00" vaporized=""/>
    <tripinfo id="veh14" depart="64.00" departLane="665146713_0" departPos="5.10" departSpeed="0.00" departDelay="0.71" arrival="210.00" arrivalLane="127497306#3_1" arrivalPos="463.62" arrivalSpeed="27.05" duration="146.00" routeLength="686.52" waitingTime="99.00" waitingCount="1" stopTime="0.00" timeLoss="116.79" rerouteNo="1" devices="tripinfo_veh14 routing_veh14 fcd_veh14" vType="veh_passenger@veh14" speedFactor="1.00" vaporized=""/>
    <tripinfo id="veh15" depart="67.00" departLane="-665146715_0" departPos="5.10" departSpeed="12.87" departDelay="-0.81" arrival="210.00" arrivalLane="127497306#3_0" arrivalPos="463.62" arrivalSpeed="26.51" duration="143.00" routeLength="629.52" waitingTime="95.00" waitingCount="2" stopTime="0.00" timeLoss="115.69" rerouteNo="1" devices="tripinfo_veh15 routing_veh15 fcd_veh15" vType="veh_passenger@veh15" speedFactor="1.00" vaporized=""/>
    <tripinfo id="veh16" depart="72.00" departLane="45014977_0" departPos="0.20" departSpeed="0.00" departDelay="-0.33" arrival="212.00" arrivalLane="127497306#3_0" arrivalPos="463.62" arrivalSpeed="27.06" duration="140.00" routeLength="562.99" waitingTime="101.00" waitingCount="1" stopTime="0.00" timeLoss="118.40" rerouteNo="1" devices="tripinfo_veh16 routing_veh16 fcd_veh16" vType="veh_passenger@veh16" speedFactor="1.00" vaporized=""/>
    <tripinfo id="veh17" depart="76.00" departLane="123936943#0_0" departPos="5.10" departSpeed="14.92" departDelay="-0.85" arrival="213.00" arrivalLane="127497306#3_1" arrivalPos="463.62" arrivalSpeed="26.95" duration="137.00" routeLength="753.31" waitingTime="68.00" waitingCount="2" stopTime="0.00" timeLoss="106.62" rerouteNo="1" devices="tripinfo_veh17 routing_veh17 fcd_veh17" vType="veh_passenger@veh17" speedFactor="1.00" vaporized=""/>
    <tripinfo id="veh20" depart="90.00" departLane="665146713_0" departPos="5.10" departSpeed="0.00" departDelay="-0.41" arrival="213.00" arrivalLane="127497306#3_2" arrivalPos="463.62" arrivalSpeed="27.76" duration="123.00" routeLength="686.52" waitingTime="70.00" waitingCount="1" stopTime="0.00" timeLoss="93.68" rerouteNo="1" devices="tripinfo_veh20 routing_veh20 fcd_veh20" vType="veh_passenger@veh20" speedFactor="1.00" vaporized=""/>
    <tripinfo id="veh21" depart="94.00" departLane="127497306#0_0" departPos="5.10" departSpeed="0.00" departDelay="-0.93" arrival="213.00" arrivalLane="127497306#3_0" arrivalPos="463.62" arrivalSpeed="26.80" duration="119.00" routeLength="511.63" waitingTime="84.00" waitingCount="1" stopTime="0.00" timeLoss="100.03" rerouteNo="1" devices="tripinfo_veh21 routing_veh21 fcd_veh21" vType="veh_passenger@veh21" speedFactor="1.00" vaporized=""/>
    <tripinfo id="veh13" depart="58.00" departLane="123936943#0_0" departPos="5.10" departSpeed="14.92" departDelay="-0.77" arrival="216.00" arrivalLane="127497306#3_2" arrivalPos="463.62" arrivalSpeed="26.68" duration="158.00" routeLength="752.57" waitingTime="80.00" waitingCount="3" stopTime="0.00" timeLoss="126.88" rerouteNo="1" devices="tripinfo_veh13 routing_veh13 fcd_veh13" vType="veh_passenger@veh13" speedFactor="1.00" vaporized=""/>
    <tripinfo id="veh33" depart="188.00" departLane="127497306#0_0" departPos="5.10" departSpeed="0.00" departDelay="38.83" arrival="216.00" arrivalLane="127497306#3_0" arrivalPos="463.62" arrivalSpeed="27.15" duration="28.00" routeLength="511.63" waitingTime="0.00" waitingCount="0" stopTime="0.00" timeLoss="9.13" rerouteNo="1" devices="tripinfo_veh33 routing_veh33 fcd_veh33" vType="veh_passenger@veh33" speedFactor="1.00" vaporized=""/>
    <tripinfo id="veh10" depart="45.00" departLane="123936943#0_0" departPos="5.10" departSpeed="14.92" departDelay="-0.20" arrival="218.00" arrivalLane="127497306#3_2" arrivalPos="463.62" arrivalSpeed="26.50" duration="173.00" routeLength="752.57" waitingTime="85.00" waitingCount="4" stopTime="0.00" timeLoss="142.31" rerouteNo="1" devices="tripinfo_veh10 routing_veh10 fcd_veh10" vType="veh_passenger@veh10" speedFactor="1.00" vaporized=""/>
    <tripinfo id="veh40" depart="180.00" departLane="665146709_0" departPos="5.10" departSpeed="0.00" departDelay="-0.82" arrival="218.00" arrivalLane="665146714#4_0" arrivalPos="421.36" arrivalSpeed="21.05" duration="38.00" routeLength="607.70" waitingTime="0.00" waitingCount="0" stopTime="0.00" timeLoss="8.73" rerouteNo="1" devices="tripinfo_veh40 routing_veh40 fcd_veh40" vType="veh_passenger@veh40" speedFactor="1.00" vaporized=""/>
    <tripinfo id="veh22" depart="99.00" departLane="-221348491#0_0" departPos="0.11" departSpeed="0.00" departDelay="-0.45" arrival="219.00" arrivalLane="127497306#3_0" arrivalPos="463.62" arrivalSpeed="27.78" duration="120.00" routeLength="578.83" waitingTime="81.00" waitingCount="1" stopTime="0.00" timeLoss="95.73" rerouteNo="1" devices="tripinfo_veh22 routing_veh22 fcd_veh22" vType="veh_passenger@veh22" speedFactor="1.00" vaporized=""/>
    <tripinfo id="bus1" depart="60.00" departLane="-23559783_1" departPos="12.10" departSpeed="17.36" departDelay="-0.27" arrival="249.00" arrivalLane="665146714#4_0" arrivalPos="421.36" arrivalSpeed="22.17" duration="189.00" routeLength="779.63" waitingTime="103.00" waitingCount="3" stopTime="0.00" timeLoss="150.67" rerouteNo="1" devices="tripinfo_bus1 routing_bus1 fcd_bus1" vType="bus_bus@bus1" speedFactor="1.00" vaporized=""/>
    <tripinfo id="veh19" depart="85.00" departLane="-23559783_1" departPos="5.10" departSpeed="16.58" departDelay="-0.89" arrival="251.00" arrivalLane="665146714#4_0" arrivalPos="421.36" arrivalSpeed="22.04" duration="166.00" routeLength="786.63" waitingTime="76.00" waitingCount="2" stopTime="0.00" timeLoss="128.33" rerouteNo="1" devices="tripinfo_veh19 routing_veh19 fcd_veh19" vType="veh_passenger@veh19" speedFactor="1.00" vaporized=""/>
    <tripinfo id="veh34" depart="153.00" departLane="45014977_0" departPos="0.20" departSpeed="0.00" departDelay="-0.69" arrival="265.00" arrivalLane="665146714#4_0" arrivalPos="421.36" arrivalSpeed="22.04" duration="112.00" routeLength="763.12" waitingTime="54.00" waitingCount="1" stopTime="0.00" timeLoss="74.06" rerouteNo="1" devices="tripinfo_veh34 routing_veh34 fcd_veh34" vType="veh_passenger@veh34" speedFactor="1.00" vaporized=""/>
    <tripinfo id="veh30" depart="135.00" departLane="-665146714#5_0" departPos="5.10" departSpeed="26.19" departDelay="-0.61" arrival="285.00" arrivalLane="23559783_1" arrivalPos="74.92" arrivalSpeed="17.44" duration="150.00" routeLength="846.50" waitingTime="74.00" waitingCount="3" stopTime="0.00" timeLoss="114.10" rerouteNo="1" devices="tripinfo_veh30 routing_veh30 fcd_veh30" vType="veh_passenger@veh30" speedFactor="1.00" vaporized=""/>
    <tripinfo id="veh56" depart="253.00" departLane="-665146715_0" departPos="5.10" departSpeed="12.49" departDelay="-0.14" arrival="287.00" arrivalLane="665146714#4_0" arrivalPos="421.36" arrivalSpeed="22.00" duration="34.00" routeLength="545.78" waitingTime="0.00" waitingCount="0" stopTime="0.00" timeLoss="5.92" rerouteNo="1" devices="tripinfo_veh56 routing_veh56 fcd_veh56" vType="veh_passenger@veh56" speedFactor="1.00" vaporized=""/>
    <tripinfo id="veh57" depart="257.00" departLane="221348491#0_0" departPos="0.10" departSpeed="0.00" departDelay="-0.66" arrival="290.00" arrivalLane="665146714#4_0" arrivalPos="421.36" arrivalSpeed="21.76" duration="33.00" routeLength="522.62" waitingTime="0.00" waitingCount="0" stopTime="0.00" timeLoss="8.09" rerouteNo="1" devices="tripinfo_veh57 routing_veh57 fcd_veh57" vType="veh_passenger@veh57" speedFactor="1.00" vaporized=""/>
    <tripinfo id="veh32" depart="144.00" departLane="77856541#0_0" departPos="5.10" departSpeed="22.33" departDelay="-0.65" arrival="306.00" arrivalLane="99952620#1_0" arrivalPos="63.37" arrivalSpeed="18.96" duration="162.00" routeLength="357.62" waitingTime="126.00" waitingCount="2" stopTime="0.00" timeLoss="146.12" rerouteNo="1" devices="tripinfo_veh32 routing_veh32 fcd_veh32" vType="veh_passenger@veh32" speedFactor="1.00" vaporized=""/>
    <tripinfo id="veh35" depart="158.00" departLane="-665146714#5_0" departPos="5.10" departSpeed="22.66" departDelay="-0.22" arrival="306.00" arrivalLane="99952620#1_1" arrivalPos="63.37" arrivalSpeed="19.29" duration="148.00" routeLength="848.19" waitingTime="64.00" waitingCount="4" stopTime="0.00" timeLoss="110.06" rerouteNo="1" devices="tripinfo_veh35 routing_veh35 fcd_veh35" vType="veh_passenger@veh35" speedFactor="1.00" vaporized=""/>
    <tripinfo id="veh66" depart="298.00" departLane="-665146714#5_0" departPos="5.10" departSpeed="20.15" departDelay="-0.35" arrival="322.00" arrivalLane="-665146714#2_0" arrivalPos="12.50" arrivalSpeed="19.82" duration="24.00" routeLength="456.07" waitingTime="0.00" waitingCount="0" stopTime="0.00" timeLoss="0.61" rerouteNo="1" devices="tripinfo_veh66 routing_veh66 fcd_veh66" vType="veh_passenger" speedFactor="0.91" vaporized=""/>
    <tripinfo id="veh4" depart="18.00" departLane="77856541#0_0" departPos="5.10" departSpeed="22.89" departDelay="-0.08" arrival="340.00" arrivalLane="127497306#3_1" arrivalPos="463.62" arrivalSpeed="27.39" duration="322.00" routeLength="805.74" waitingTime="249.00" waitingCount="3" stopTime="0.00" timeLoss="287.82" rerouteNo="1" devices="tripinfo_veh4 routing_veh4 fcd_veh4" vType="veh_passenger@veh4" speedFactor="1.00" vaporized=""/>
    <tripinfo id="veh26" depart="117.00" departLane="-665146715_0" departPos="5.10" departSpeed="12.74" departDelay="-0.53" arrival="341.00" arrivalLane="127497306#3_0" arrivalPos="463.62" arrivalSpeed="27.57" duration="224.00" routeLength="629.52" waitingTime="169.00" waitingCount="3" stopTime="0.00" timeLoss="195.99" rerouteNo="1" devices="tripinfo_veh26 routing_veh26 fcd_veh26" vType="veh_passenger@veh26" speedFactor="1.00" vaporized=""/>
    <tripinfo id="veh29" depart="131.00" departLane="665146712_0" departPos="1.12" departSpeed="0.00" departDelay="-0.09" arrival="341.00" arrivalLane="127497306#3_2" arrivalPos="463.62" arrivalSpeed="27.63" duration="210.00" routeLength="720.34" waitingTime="143.00" waitingCount="2" stopTime="0.00" timeLoss="178.33" rerouteNo="1" devices="tripinfo_veh29 routing_veh29 fcd_veh29" vType="veh_passenger@veh29" speedFactor="1.00" vaporized=""/>
    <tripinfo id="veh9" depart="40.00" departLane="-23559783_1" departPos="5.10" departSpeed="21.26" departDelay="-0.68" arrival="343.00" arrivalLane="127497306#3_1" arrivalPos="463.62" arrivalSpeed="27.29" duration="303.00" routeLength="791.24" waitingTime="216.00" waitingCount="3" stopTime="0.00" timeLoss="268.79" rerouteNo="1" devices="tripinfo_veh9 routing_veh9 fcd_veh9" vType="veh_passenger@veh9" speedFactor="1.00" vaporized=""/>
    <tripinfo id="veh37" depart="167.00" departLane="665146714#1_0" departPos="5.10" departSpeed="0.00" departDelay="-0.26" arrival="343.00" arrivalLane="127497306#3_0" arrivalPos="463.62" arrivalSpeed="26.77" duration="176.00" routeLength="667.48" waitingTime="96.00" waitingCount="4" stopTime="0.00" timeLoss="146.06" rerouteNo="1" devices="tripinfo_veh37 routing_veh37 fcd_veh37" vType="veh_passenger@veh37" speedFactor="1.00" vaporized=""/>
    <tripinfo id="veh8" depart="36.00" departLane="-23559783_1" departPos="5.10" departSpeed="22.88" departDelay="-0.16" arrival="344.00" arrivalLane="127497306#3_2" arrivalPos="463.62" arrivalSpeed="27.63" duration="308.00" routeLength="791.24" waitingTime="234.00" waitingCount="3" stopTime="0.00" timeLoss="275.14" rerouteNo="1" devices="tripinfo_veh8 routing_veh8 fcd_veh8" vType="veh_passenger@veh8" speedFactor="1.00" vaporized=""/>
    <tripinfo id="veh46" depart="207.00" departLane="665146714#2_0" departPos="5.10" departSpeed="0.00" departDelay="-0.94" arrival="345.00" arrivalLane="127497306#3_0" arrivalPos="463.62" arrivalSpeed="27.54" duration="138.00" routeLength="664.20" waitingTime="62.00" waitingCount="2" stopTime="0.00" timeLoss="108.07" rerouteNo="1" devices="tripinfo_veh46 routing_veh46 fcd_veh46" vType="veh_passenger@veh46" speedFactor="1.00" vaporized=""/>
    <tripinfo id="veh38" depart="171.00" departLane="585506249#0_1" departPos="5.10" departSpeed="30.62" departDelay="-0.78" arrival="346.00" arrivalLane="127497306#3_1" arrivalPos="463.62" arrivalSpeed="27.10" duration="175.00" routeLength="685.96" waitingTime="117.00" waitingCount="2" stopTime="0.00" timeLoss="148.87" rerouteNo="1" devices="tripinfo_veh38 routing_veh38 fcd_veh38" vType="veh_passenger@veh38" speedFactor="1.00" vaporized=""/>
    <tripinfo id="veh31" depart="140.00" departLane="123936943#0_0" departPos="5.10" departSpeed="14.92" departDelay="-0.13" arrival="347.00" arrivalLane="127497306#3_2" arrivalPos="463.62" arrivalSpeed="26.51" duration="207.00" routeLength="752.57" waitingTime="144.00" waitingCount="2" stopTime="0.00" timeLoss="175.92" rerouteNo="1" devices="tripinfo_veh31 routing_veh31 fcd_veh31" vType="veh_passenger@veh31" speedFactor="1.00" vaporized=""/>
    <tripinfo id="veh42" depart="189.00" departLane="585506249#0_1" departPos="5.10" departSpeed="15.64" departDelay="-0.86" arrival="348.00" arrivalLane="127497306#3_1" arrivalPos="463.62" arrivalSpeed="26.60" duration="159.00" routeLength="685.96" waitingTime="94.00" waitingCount="3" stopTime="0.00" timeLoss="133.32" rerouteNo="1" devices="tripinfo_veh42 routing_veh42 fcd_veh42" vType="veh_passenger@veh42" speedFactor="1.00" vaporized=""/>
    <tripinfo id="veh28" depart="126.00" departLane="123936943#0_0" departPos="5.10" departSpeed="14.92" departDelay="-0.57" arrival="349.00" arrivalLane="127497306#3_2" arrivalPos="463.62" arrivalSpeed="27.76" duration="223.00" routeLength="753.31" waitingTime="151.00" waitingCount="3" stopTime="0.00" timeLoss="193.20" rerouteNo="1" devices="tripinfo_veh28 routing_veh28 fcd_veh28" vType="veh_passenger@veh28" speedFactor="1.00" vaporized=""/>
    <tripinfo id="veh67" depart="321.00" departLane="127497306#0_0" departPos="5.10" departSpeed="0.00" departDelay="18.13" arrival="350.00" arrivalLane="127497306#3_0" arrivalPos="463.62" arrivalSpeed="26.68" duration="29.00" routeLength="511.63" waitingTime="0.00" waitingCount="0" stopTime="0.00" timeLoss="9.37" rerouteNo="1" devices="tripinfo_veh67 routing_veh67 fcd_veh67" vType="veh_passenger@veh67" speedFactor="1.00" vaporized=""/>
    <tripinfo id="veh43" depart="194.00" departLane="585506249#0_1" departPos="5.10" departSpeed="26.20" departDelay="-0.38" arrival="351.00" arrivalLane="127497306#3_1" arrivalPos="463.62" arrivalSpeed="26.89" duration="157.00" routeLength="685.96" waitingTime="117.00" waitingCount="1" stopTime="0.00" timeLoss="130.81" rerouteNo="1" devices="tripinfo_veh43 routing_veh43 fcd_veh43" vType="veh_passenger@veh43" speedFactor="1.00" vaporized=""/>
    <tripinfo id="veh44" depart="198.00" departLane="123936943#0_0" departPos="5.10" departSpeed="12.56" departDelay="-0.90" arrival="352.00" arrivalLane="127497306#3_2" arrivalPos="463.62" arrivalSpeed="27.24" duration="154.00" routeLength="752.57" waitingTime="70.00" waitingCount="2" stopTime="0.00" timeLoss="123.20" rerouteNo="1" devices="tripinfo_veh44 routing_veh44 fcd_veh44" vType="veh_passenger@veh44" speedFactor="1.00" vaporized=""/>
    <tripinfo id="veh45" depart="203.00" departLane="585506249#0_1" departPos="5.10" departSpeed="29.86" departDelay="-0.42" arrival="353.00" arrivalLane="127497306#3_1" arrivalPos="463.62" arrivalSpeed="27.05" duration="150.00" routeLength="685.96" waitingTime="110.00" waitingCount="1" stopTime="0.00" timeLoss="124.48" rerouteNo="1" devices="tripinfo_veh45 routing_veh45 fcd_veh45" vType="veh_passenger@veh45" speedFactor="1.00" vaporized=""/>
    <tripinfo id="veh50" depart="226.00" departLane="600437351_0" departPos="5.10" departSpeed="0.00" departDelay="-0.02" arrival="355.00" arrivalLane="127497306#3_2" arrivalPos="463.62" arrivalSpeed="27.15" duration="129.00" routeLength="682.32" waitingTime="55.00" waitingCount="1" stopTime="0.00" timeLoss="100.92" rerouteNo="1" devices="tripinfo_veh50 routing_veh50 fcd_veh50" vType="veh_passenger@veh50" speedFactor="1.00" vaporized=""/>
    <tripinfo id="veh55" depart="248.00" departLane="585506249#0_1" departPos="5.10" departSpeed="27.67" departDelay="-0.62" arrival="356.00" arrivalLane="127497306#3_1" arrivalPos="463.62" arrivalSpeed="27.60" duration="108.00" routeLength="685.96" waitingTime="59.00" waitingCount="1" stopTime="0.00" timeLoss="81.91" rerouteNo="1" devices="tripinfo_veh55 routing_veh55 fcd_veh55" vType="veh_passenger@veh55" speedFactor="1.00" vaporized=""/>
    <tripinfo id="veh23" depart="103.00" departLane="123936943#0_0" departPos="5.10" departSpeed="14.92" departDelay="-0.97" arrival="357.00" arrivalLane="127497306#3_2" arrivalPos="463.62" arrivalSpeed="26.78" duration="254.00" routeLength="752.57" waitingTime="170.00" waitingCount="3" stopTime="0.00" timeLoss="222.84" rerouteNo="1" devices="tripinfo_veh23 routing_veh23 fcd_veh23" vType="veh_passenger@veh23" speedFactor="1.00" vaporized=""/>
    <tripinfo id="veh58" depart="262.00" departLane="585506249#0_1" departPos="5.10" departSpeed="15.64" departDelay="-0.19" arrival="358.00" arrivalLane="127497306#3_1" arrivalPos="463.62" arrivalSpeed="27.47" duration="96.00" routeLength="685.96" waitingTime="46.00" waitingCount="1" stopTime="0.00" timeLoss="70.37" rerouteNo="1" devices="tripinfo_veh58 routing_veh58 fcd_veh58" vType="veh_passenger@veh58" speedFactor="1.00" vaporized=""/>
    <tripinfo id="veh52" depart="235.00" departLane="77856541#0_0" departPos="5.10" departSpeed="22.59" departDelay="-0.06" arrival="359.00" arrivalLane="127497306#3_2" arrivalPos="463.62" arrivalSpeed="27.63" duration="124.00" routeLength="805.74" waitingTime="53.00" waitingCount="2" stopTime="0.00" timeLoss="89.31" rerouteNo="1" devices="tripinfo_veh52 routing_veh52 fcd_veh52" vType="veh_passenger@veh52" speedFactor="1.00" vaporized=""/>
    <tripinfo id="veh59" depart="266.00" departLane="585506249#0_1" departPos="5.10" departSpeed="25.20" departDelay="-0.71" arrival="361.00" arrivalLane="127497306#3_1" arrivalPos="463.62" arrivalSpeed="26.70" duration="95.00" routeLength="685.96" waitingTime="44.00" waitingCount="1" stopTime="0.00" timeLoss="68.69" rerouteNo="1" devices="tripinfo_veh59 routing_veh59 fcd_veh59" vType="veh_passenger@veh59" speedFactor="1.00" vaporized=""/>
    <tripinfo id="veh27" depart="122.00" departLane="665146708_3" departPos="5.10" departSpeed="0.00" departDelay="-0.05" arrival="362.00" arrivalLane="127497306#3_2" arrivalPos="463.62" arrivalSpeed="27.34" duration="240.00" routeLength="744.73" waitingTime="159.00" waitingCount="3" stopTime="0.00" timeLoss="207.91" rerouteNo="1" devices="tripinfo_veh27 routing_veh27 fcd_veh27" vType="veh_passenger@veh27" speedFactor="1.00" vaporized=""/>
    <tripinfo id="veh64" depart="289.00" departLane="585506249#0_1" departPos="5.10" departSpeed="24.18" departDelay="-0.31" arrival="363.00" arrivalLane="127497306#3_1" arrivalPos="463.62" arrivalSpeed="27.00" duration="74.00" routeLength="685.96" waitingTime="25.00" waitingCount="1" stopTime="0.00" timeLoss="48.12" rerouteNo="1" devices="tripinfo_veh64 routing_veh64 fcd_veh64" vType="veh_passenger@veh64" speedFactor="1.00" vaporized=""/>
    <tripinfo id="veh73" depart="329.00" departLane="-665146715_0" departPos="5.10" departSpeed="14.66" departDelay="-0.99" arrival="363.00" arrivalLane="665146714#4_0" arrivalPos="421.36" arrivalSpeed="21.84" duration="34.00" routeLength="545.78" waitingTime="0.00" waitingCount="0" stopTime="0.00" timeLoss="5.53" rerouteNo="1" devices="tripinfo_veh73 routing_veh73 fcd_veh73" vType="veh_passenger@veh73" speedFactor="1.00" vaporized=""/>
    <tripinfo id="veh25" depart="113.00" departLane="-23559783_1" departPos="5.10" departSpeed="14.70" departDelay="-0.01" arrival="365.00" arrivalLane="127497306#3_2" arrivalPos="463.62" arrivalSpeed="27.19" duration="252.00" routeLength="791.24" waitingTime="173.00" waitingCount="3" stopTime="0.00" timeLoss="218.22" rerouteNo="1" devices="tripinfo_veh25 routing_veh25 fcd_veh25" vType="veh_passenger@veh25" speedFactor="1.00" vaporized=""/>
    <tripinfo id="veh65" depart="293.00" departLane="585506249#0_1" departPos="5.10" departSpeed="21.43" departDelay="-0.83" arrival="366.00" arrivalLane="127497306#3_1" arrivalPos="463.62" arrivalSpeed="27.45" duration="73.00" routeLength="685.96" waitingTime="21.00" waitingCount="1" stopTime="0.00" timeLoss="46.65" rerouteNo="1" devices="tripinfo_veh65 routing_veh65 fcd_veh65" vType="veh_passenger@veh65" speedFactor="1.00" vaporized=""/>
    <tripinfo id="veh36" depart="162.00" departLane="-23559783_1" departPos="5.10" departSpeed="21.26" departDelay="-0.74" arrival="367.00" arrivalLane="127497306#3_2" arrivalPos="463.62" arrivalSpeed="27.48" duration="205.00" routeLength="791.24" waitingTime="133.00" waitingCount="2" stopTime="0.00" timeLoss="172.01" rerouteNo="1" devices="tripinfo_veh36 routing_veh36 fcd_veh36" vType="veh_passenger@veh36" speedFactor="1.00" vaporized=""/>
    <tripinfo id="veh39" depart="176.00" departLane="-23559783_1" departPos="5.10" departSpeed="19.76" departDelay="-0.30" arrival="370.00" arrivalLane="127497306#3_2" arrivalPos="463.62" arrivalSpeed="27.17" duration="194.00" routeLength="791.24" waitingTime="117.00" waitingCount="2" stopTime="0.00" timeLoss="159.98" rerouteNo="1" devices="tripinfo_veh39 routing_veh39 fcd_veh39" vType="veh_passenger@veh39" speedFactor="1.00" vaporized=""/>
    <tripinfo id="veh51" depart="230.00" departLane="-23559783_1" departPos="5.10" departSpeed="18.26" departDelay="-0.54" arrival="372.00" arrivalLane="127497306#3_2" arrivalPos="463.62" arrivalSpeed="27.60" duration="142.00" routeLength="791.24" waitingTime="61.00" waitingCount="2" stopTime="0.00" timeLoss="110.14" rerouteNo="1" devices="tripinfo_veh51 routing_veh51 fcd_veh51" vType="veh_passenger@veh51" speedFactor="1.00" vaporized=""/>
    <tripinfo id="veh41" depart="185.00" departLane="665146708_3" departPos="5.10" departSpeed="0.00" departDelay="-0.34" arrival="375.00" arrivalLane="127497306#3_2" arrivalPos="463.62" arrivalSpeed="26.50" duration="190.00" routeLength="744.73" waitingTime="116.00" waitingCount="2" stopTime="0.00" timeLoss="158.15" rerouteNo="1" devices="tripinfo_veh41 routing_veh41 fcd_veh41" vType="veh_passenger@veh41" speedFactor="1.00" vaporized=""/>
    <tripinfo id="veh48" depart="216.00" departLane="665146708_3" departPos="5.10" departSpeed="0.00" departDelay="-0.98" arrival="378.00" arrivalLane="127497306#3_2" arrivalPos="463.62" arrivalSpeed="27.66" duration="162.00" routeLength="744.73" waitingTime="79.00" waitingCount="2" stopTime="0.00" timeLoss="129.87" rerouteNo="1" devices="tripinfo_veh48 routing_veh48 fcd_veh48" vType="veh_passenger@veh48" speedFactor="1.00" vaporized=""/>
    <tripinfo id="veh76" depart="343.00" departLane="585506249#0_0" departPos="5.10" departSpeed="28.68" departDelay="-0.55" arrival="379.00" arrivalLane="665146714#4_0" arrivalPos="421.36" arrivalSpeed="22.13" duration="36.00" routeLength="646.87" waitingTime="0.00" waitingCount="0" stopTime="0.00" timeLoss="6.07" rerouteNo="1" devices="tripinfo_veh76 routing_veh76 fcd_veh76" vType="veh_passenger@veh76" speedFactor="1.00" vaporized=""/>