<?xml version="1.0" encoding="UTF-8"?>

<!-- generated on пятница, 19 июня 2020 г. 11:32:02 by Eclipse SUMO GUI Version 1.5.0
<configuration xmlns:xsi="http://www.w3.org/2001/XMLSchema-instance" xsi:noNamespaceSchemaLocation="http://sumo.dlr.de/xsd/sumoConfiguration.xsd">

    <input>
        <net-file value="data/cross.net.xml"/>
        <route-files value="data/cross.rou.xml"/>
    </input>

    <output>
        <tripinfo-output value="tripinfo.xml"/>
    </output>

    <time>
        <begin value="0"/>
    </time>

    <processing>
        <ignore-route-errors value="true"/>
        <collision.mingap-factor value="0"/>
    </processing>

    <report>
        <verbose value="true"/>
        <no-warnings value="true"/>
        <no-step-log value="true"/>
    </report>

    <traci_server>
        <remote-port value="60654"/>
    </traci_server>

</configuration>
-->

<tripinfos xmlns:xsi="http://www.w3.org/2001/XMLSchema-instance" xsi:noNamespaceSchemaLocation="http://sumo.dlr.de/xsd/tripinfo_file.xsd">
    <tripinfo id="up_2" depart="5.00" departLane="53o_0" departPos="7.10" departSpeed="0.00" departDelay="0.00" arrival="68.00" arrivalLane="upup_0" arrivalPos="160.86" arrivalSpeed="17.37" duration="63.00" routeLength="718.35" waitingTime="0.00" waitingCount="0" stopTime="0.00" timeLoss="18.48" rerouteNo="0" devices="tripinfo_up_2" vType="typeNS@up_2" speedFactor="1.00" vaporized=""/>
    <tripinfo id="new_0" depart="1.00" departLane="top1i_0" departPos="5.10" departSpeed="0.00" departDelay="0.00" arrival="71.00" arrivalLane="top2o_0" arrivalPos="489.40" arrivalSpeed="19.07" duration="70.00" routeLength="988.37" waitingTime="0.00" waitingCount="0" stopTime="0.00" timeLoss="7.19" rerouteNo="0" devices="tripinfo_new_0" vType="typeWE@new_0" speedFactor="1.00" vaporized=""/>
    <tripinfo id="down_3" depart="9.00" departLane="updown_0" departPos="7.10" departSpeed="0.00" departDelay="0.00" arrival="112.00" arrivalLane="53i_0" arrivalPos="10.00" arrivalSpeed="11.06" duration="103.00" routeLength="718.34" waitingTime="13.00" waitingCount="1" stopTime="0.00" timeLoss="40.67" rerouteNo="0" devices="tripinfo_down_3" vType="typeNS@down_3" speedFactor="1.00" vaporized=""/>
    <tripinfo id="new_1" depart="4.00" departLane="top1i_0" departPos="5.10" departSpeed="0.00" departDelay="2.00" arrival="123.00" arrivalLane="top2o_0" arrivalPos="489.40" arrivalSpeed="19.64" duration="119.00" routeLength="988.37" waitingTime="37.00" waitingCount="1" stopTime="0.00" timeLoss="56.07" rerouteNo="0" devices="tripinfo_new_1" vType="typeWE@new_1" speedFactor="1.00" vaporized=""/>
    <tripinfo id="new_4" depart="12.00" departLane="top1i_0" departPos="5.10" departSpeed="0.00" departDelay="0.00" arrival="130.00" arrivalLane="top2o_0" arrivalPos="489.40" arrivalSpeed="18.60" duration="118.00" routeLength="988.37" waitingTime="5.00" waitingCount="2" stopTime="0.00" timeLoss="55.30" rerouteNo="0" devices="tripinfo_new_4" vType="typeWE@new_4" speedFactor="1.00" vaporized=""/>
    <tripinfo id="down_12" depart="52.00" departLane="updown_0" departPos="7.10" departSpeed="0.00" departDelay="0.00" arrival="131.00" arrivalLane="53i_0" arrivalPos="10.00" arrivalSpeed="10.91" duration="79.00" routeLength="718.34" waitingTime="0.00" waitingCount="0" stopTime="0.00" timeLoss="16.43" rerouteNo="0" devices="tripinfo_down_12" vType="typeNS@down_12" speedFactor="1.00" vaporized=""/>
    <tripinfo id="new_6" depart="17.00" departLane="top1i_0" departPos="5.10" departSpeed="0.00" departDelay="0.00" arrival="137.00" arrivalLane="top2o_0" arrivalPos="489.40" arrivalSpeed="19.40" duration="120.00" routeLength="988.37" waitingTime="0.00" waitingCount="0" stopTime="0.00" timeLoss="56.93" rerouteNo="0" devices="tripinfo_new_6" vType="typeWE@new_6" speedFactor="1.00" vaporized=""/>
    <tripinfo id="new_15" depart="68.00" departLane="top1i_0" departPos="5.10" departSpeed="0.00" departDelay="0.00" arrival="144.00" arrivalLane="top2o_0" arrivalPos="489.40" arrivalSpeed="18.54" duration="76.00" routeLength="988.37" waitingTime="0.00" waitingCount="0" stopTime="0.00" timeLoss="13.25" rerouteNo="0" devices="tripinfo_new_15" vType="typeWE@new_15" speedFactor="1.00" vaporized=""/>
    <tripinfo id="right_7" depart="18.00" departLane="51o_0" departPos="5.10" departSpeed="0.00" departDelay="0.00" arrival="147.00" arrivalLane="52i_0" arrivalPos="10.00" arrivalSpeed="12.33" duration="129.00" routeLength="1015.10" waitingTime="28.00" waitingCount="1" stopTime="0.00" timeLoss="41.70" rerouteNo="0" devices="tripinfo_right_7" vType="typeWE@right_7" speedFactor="1.00" vaporized=""/>
    <tripinfo id="up_11" depart="48.00" departLane="53o_0" departPos="7.10" departSpeed="0.00" departDelay="0.00" arrival="159.00" arrivalLane="upup_0" arrivalPos="160.86" arrivalSpeed="14.77" duration="111.00" routeLength="718.35" waitingTime="36.00" waitingCount="2" stopTime="0.00" timeLoss="66.79" rerouteNo="0" devices="tripinfo_up_11" vType="typeNS@up_11" speedFactor="1.00" vaporized=""/>
    <tripinfo id="right_14" depart="61.00" departLane="51o_0" departPos="5.10" departSpeed="0.00" departDelay="0.00" arrival="160.00" arrivalLane="52i_0" arrivalPos="10.00" arrivalSpeed="13.88" duration="99.00" routeLength="1015.10" waitingTime="0.00" waitingCount="0" stopTime="0.00" timeLoss="11.28" rerouteNo="0" devices="tripinfo_right_14" vType="typeWE@right_14" speedFactor="1.00" vaporized=""/>
    <tripinfo id="left_8" depart="38.00" departLane="52o_0" departPos="5.10" departSpeed="0.00" departDelay="0.00" arrival="163.00" arrivalLane="51i_0" arrivalPos="10.00" arrivalSpeed="11.11" duration="125.00" routeLength="1015.10" waitingTime="14.00" waitingCount="1" stopTime="0.00" timeLoss="30.69" rerouteNo="0" devices="tripinfo_left_8" vType="typeWE@left_8" speedFactor="0.88" vaporized=""/>
    <tripinfo id="right_18" depart="72.00" departLane="51o_0" departPos="5.10" departSpeed="0.00" departDelay="0.00" arrival="171.00" arrivalLane="52i_0" arrivalPos="10.00" arrivalSpeed="11.23" duration="99.00" routeLength="1015.10" waitingTime="0.00" waitingCount="0" stopTime="0.00" timeLoss="11.93" rerouteNo="0" devices="tripinfo_right_18" vType="typeWE@right_18" speedFactor="1.00" vaporized=""/>
    <tripinfo id="left_9" depart="41.00" departLane="52o_0" departPos="5.10" departSpeed="0.00" departDelay="0.00" arrival="172.00" arrivalLane="51i_0" arrivalPos="10.00" arrivalSpeed="10.12" duration="131.00" routeLength="1015.10" waitingTime="0.00" waitingCount="0" stopTime="0.00" timeLoss="34.68" rerouteNo="0" devices="tripinfo_left_9" vType="typeWE@left_9" speedFactor="0.88" vaporized=""/>
    <tripinfo id="left_10" depart="43.00" departLane="52o_0" departPos="5.10" departSpeed="0.00" departDelay="1.00" arrival="182.00" arrivalLane="51i_0" arrivalPos="10.00" arrivalSpeed="10.65" duration="139.00" routeLength="1015.10" waitingTime="0.00" waitingCount="0" stopTime="0.00" timeLoss="48.22" rerouteNo="0" devices="tripinfo_left_10" vType="typeWE@left_10" speedFactor="0.88" vaporized=""/>
    <tripinfo id="right_19" depart="75.00" departLane="51o_0" departPos="5.10" departSpeed="0.00" departDelay="1.00" arrival="183.00" arrivalLane="52i_0" arrivalPos="10.00" arrivalSpeed="11.40" duration="108.00" routeLength="1015.10" waitingTime="1.00" waitingCount="1" stopTime="0.00" timeLoss="19.73" rerouteNo="0" devices="tripinfo_right_19" vType="typeWE@right_19" speedFactor="1.00" vaporized=""/>
    <tripinfo id="new3_5" depart="14.00" departLane="top2i_0" departPos="5.10" departSpeed="0.00" departDelay="0.00" arrival="191.00" arrivalLane="53i_0" arrivalPos="10.00" arrivalSpeed="13.19" duration="177.00" routeLength="1048.69" waitingTime="66.00" waitingCount="3" stopTime="0.00" timeLoss="91.81" rerouteNo="0" devices="tripinfo_new3_5" vType="typeWE@new3_5" speedFactor="1.00" vaporized=""/>
    <tripinfo id="left_16" depart="70.00" departLane="52o_0" departPos="5.10" departSpeed="0.00" departDelay="0.00" arrival="191.00" arrivalLane="51i_0" arrivalPos="10.00" arrivalSpeed="10.61" duration="121.00" routeLength="1015.10" waitingTime="0.00" waitingCount="0" stopTime="0.00" timeLoss="25.86" rerouteNo="0" devices="tripinfo_left_16" vType="typeWE@left_16" speedFactor="0.88" vaporized=""/>
    <tripinfo id="new3_13" depart="56.00" departLane="top2i_0" departPos="5.10" departSpeed="0.00" departDelay="0.00" arrival="199.00" arrivalLane="53i_0" arrivalPos="10.00" arrivalSpeed="11.94" duration="143.00" routeLength="1048.69" waitingTime="1.00" waitingCount="1" stopTime="0.00" timeLoss="64.17" rerouteNo="0" devices="tripinfo_new3_13" vType="typeWE@new3_13" speedFactor="1.00" vaporized=""/>
    <tripinfo id="left_20" depart="75.00" departLane="52o_0" departPos="5.10" departSpeed="0.00" departDelay="0.00" arrival="201.00" arrivalLane="51i_0" arrivalPos="10.00" arrivalSpeed="10.67" duration="126.00" routeLength="1015.10" waitingTime="0.00" waitingCount="0" stopTime="0.00" timeLoss="33.36" rerouteNo="0" devices="tripinfo_left_20" vType="typeWE@left_20" speedFactor="0.88" vaporized=""/>
    <tripinfo id="down_17" depart="71.00" departLane="updown_0" departPos="7.10" departSpeed="0.00" departDelay="0.00" arrival="207.00" arrivalLane="53i_0" arrivalPos="10.00" arrivalSpeed="11.89" duration="136.00" routeLength="718.34" waitingTime="39.00" waitingCount="1" stopTime="0.00" timeLoss="73.06" rerouteNo="0" devices="tripinfo_down_17" vType="typeNS@down_17" speedFactor="1.00" vaporized=""/>
    <tripinfo id="new_24" depart="97.00" departLane="top1i_0" departPos="5.10" departSpeed="0.00" departDelay="0.00" arrival="213.00" arrivalLane="top2o_0" arrivalPos="489.40" arrivalSpeed="19.81" duration="116.00" routeLength="988.37" waitingTime="39.00" waitingCount="1" stopTime="0.00" timeLoss="53.17" rerouteNo="0" devices="tripinfo_new_24" vType="typeWE@new_24" speedFactor="1.00" vaporized=""/>
    <tripinfo id="down_21" depart="77.00" departLane="updown_0" departPos="7.10" departSpeed="0.00" departDelay="0.00" arrival="216.00" arrivalLane="53i_0" arrivalPos="10.00" arrivalSpeed="11.64" duration="139.00" routeLength="718.34" waitingTime="17.00" waitingCount="3" stopTime="0.00" timeLoss="76.52" rerouteNo="0" devices="tripinfo_down_21" vType="typeNS@down_21" speedFactor="1.00" vaporized=""/>
    <tripinfo id="new_26" depart="116.00" departLane="top1i_0" departPos="5.10" departSpeed="0.00" departDelay="0.00" arrival="219.00" arrivalLane="top2o_0" arrivalPos="489.40" arrivalSpeed="19.88" duration="103.00" routeLength="988.37" waitingTime="0.00" waitingCount="0" stopTime="0.00" timeLoss="40.78" rerouteNo="0" devices="tripinfo_new_26" vType="typeWE@new_26" speedFactor="1.00" vaporized=""/>
    <tripinfo id="down_31" depart="136.00" departLane="updown_0" departPos="7.10" departSpeed="0.00" departDelay="0.00" arrival="225.00" arrivalLane="53i_0" arrivalPos="10.00" arrivalSpeed="11.29" duration="89.00" routeLength="718.34" waitingTime="0.00" waitingCount="0" stopTime="0.00" timeLoss="27.61" rerouteNo="0" devices="tripinfo_down_31" vType="typeNS@down_31" speedFactor="1.00" vaporized=""/>
    <tripinfo id="new_30" depart="129.00" departLane="top1i_0" departPos="5.10" departSpeed="0.00" departDelay="0.00" arrival="226.00" arrivalLane="top2o_0" arrivalPos="489.40" arrivalSpeed="18.91" duration="97.00" routeLength="988.37" waitingTime="0.00" waitingCount="0" stopTime="0.00" timeLoss="34.62" rerouteNo="0" devices="tripinfo_new_30" vType="typeWE@new_30" speedFactor="1.00" vaporized=""/>
    <tripinfo id="new_33" depart="144.00" departLane="top1i_0" departPos="5.10" departSpeed="0.00" departDelay="0.00" arrival="233.00" arrivalLane="top2o_0" arrivalPos="489.40" arrivalSpeed="19.15" duration="89.00" routeLength="988.37" waitingTime="0.00" waitingCount="0" stopTime="0.00" timeLoss="26.65" rerouteNo="0" devices="tripinfo_new_33" vType="typeWE@new_33" speedFactor="1.00" vaporized=""/>
    <tripinfo id="right_23" depart="91.00" departLane="51o_0" departPos="5.10" departSpeed="0.00" departDelay="0.00" arrival="238.00" arrivalLane="52i_0" arrivalPos="10.00" arrivalSpeed="12.51" duration="147.00" routeLength="1015.10" waitingTime="43.00" waitingCount="1" stopTime="0.00" timeLoss="60.02" rerouteNo="0" devices="tripinfo_right_23" vType="typeWE@right_23" speedFactor="1.00" vaporized=""/>
    <tripinfo id="new_36" depart="147.00" departLane="top1i_0" departPos="5.10" departSpeed="0.00" departDelay="0.00" arrival="240.00" arrivalLane="top2o_0" arrivalPos="489.40" arrivalSpeed="18.91" duration="93.00" routeLength="988.37" waitingTime="0.00" waitingCount="0" stopTime="0.00" timeLoss="30.31" rerouteNo="0" devices="tripinfo_new_36" vType="typeWE@new_36" speedFactor="1.00" vaporized=""/>
    <tripinfo id="right_25" depart="104.00" departLane="51o_0" departPos="5.10" departSpeed="0.00" departDelay="0.00" arrival="247.00" arrivalLane="52i_0" arrivalPos="10.00" arrivalSpeed="12.03" duration="143.00" routeLength="1015.10" waitingTime="6.00" waitingCount="2" stopTime="0.00" timeLoss="55.60" rerouteNo="0" devices="tripinfo_right_25" vType="typeWE@right_25" speedFactor="1.00" vaporized=""/>
    <tripinfo id="new_38" depart="160.00" departLane="top1i_0" departPos="5.10" departSpeed="0.00" departDelay="0.00" arrival="247.00" arrivalLane="top2o_0" arrivalPos="489.40" arrivalSpeed="18.96" duration="87.00" routeLength="988.37" waitingTime="0.00" waitingCount="0" stopTime="0.00" timeLoss="24.49" rerouteNo="0" devices="tripinfo_new_38" vType="typeWE@new_38" speedFactor="1.00" vaporized=""/>
    <tripinfo id="left_22" depart="85.00" departLane="52o_0" departPos="5.10" departSpeed="0.00" departDelay="0.00" arrival="252.00" arrivalLane="51i_0" arrivalPos="10.00" arrivalSpeed="10.71" duration="167.00" routeLength="1015.10" waitingTime="45.00" waitingCount="1" stopTime="0.00" timeLoss="73.47" rerouteNo="0" devices="tripinfo_left_22" vType="typeWE@left_22" speedFactor="0.88" vaporized=""/>
    <tripinfo id="up_37" depart="149.00" departLane="53o_0" departPos="7.10" departSpeed="0.00" departDelay="0.00" arrival="254.00" arrivalLane="upup_0" arrivalPos="160.86" arrivalSpeed="17.25" duration="105.00" routeLength="718.35" waitingTime="34.00" waitingCount="1" stopTime="0.00" timeLoss="64.10" rerouteNo="0" devices="tripinfo_up_37" vType="typeNS@up_37" speedFactor="1.00" vaporized=""/>
    <tripinfo id="right_27" depart="118.00" departLane="51o_0" departPos="5.10" departSpeed="0.00" departDelay="0.00" arrival="256.00" arrivalLane="52i_0" arrivalPos="10.00" arrivalSpeed="12.79" duration="138.00" routeLength="1015.10" waitingTime="0.00" waitingCount="0" stopTime="0.00" timeLoss="50.91" rerouteNo="0" devices="tripinfo_right_27" vType="typeWE@right_27" speedFactor="1.00" vaporized=""/>
    <tripinfo id="left_28" depart="123.00" departLane="52o_0" departPos="5.10" departSpeed="0.00" departDelay="0.00" arrival="262.00" arrivalLane="51i_0" arrivalPos="10.00" arrivalSpeed="10.42" duration="139.00" routeLength="1015.10" waitingTime="3.00" waitingCount="1" stopTime="0.00" timeLoss="48.14" rerouteNo="0" devices="tripinfo_left_28" vType="typeWE@left_28" speedFactor="0.88" vaporized=""/>
    <tripinfo id="up_39" depart="161.00" departLane="53o_0" departPos="7.10" departSpeed="0.00" departDelay="0.00" arrival="263.00" arrivalLane="upup_0" arrivalPos="160.86" arrivalSpeed="16.58" duration="102.00" routeLength="718.35" waitingTime="8.00" waitingCount="3" stopTime="0.00" timeLoss="54.27" rerouteNo="0" devices="tripinfo_up_39" vType="typeNS@up_39" speedFactor="1.00" vaporized=""/>
    <tripinfo id="right_29" depart="126.00" departLane="51o_0" departPos="5.10" departSpeed="0.00" departDelay="0.00" arrival="264.00" arrivalLane="52i_0" arrivalPos="10.00" arrivalSpeed="13.10" duration="138.00" routeLength="1015.10" waitingTime="0.00" waitingCount="0" stopTime="0.00" timeLoss="50.47" rerouteNo="0" devices="tripinfo_right_29" vType="typeWE@right_29" speedFactor="1.00" vaporized=""/>
    <tripinfo id="up_42" depart="166.00" departLane="53o_0" departPos="7.10" departSpeed="0.00" departDelay="0.00" arrival="270.00" arrivalLane="upup_0" arrivalPos="160.86" arrivalSpeed="15.43" duration="104.00" routeLength="718.35" waitingTime="0.00" waitingCount="0" stopTime="0.00" timeLoss="61.32" rerouteNo="0" devices="tripinfo_up_42" vType="typeNS@up_42" speedFactor="1.00" vaporized=""/>
    <tripinfo id="left_41" depart="166.00" departLane="52o_0" departPos="5.10" departSpeed="0.00" departDelay="0.00" arrival="271.00" arrivalLane="51i_0" arrivalPos="10.00" arrivalSpeed="11.36" duration="105.00" routeLength="1015.10" waitingTime="0.00" waitingCount="0" stopTime="0.00" timeLoss="11.69" rerouteNo="0" devices="tripinfo_left_41" vType="typeWE@left_41" speedFactor="0.88" vaporized=""/>
    <tripinfo id="right_32" depart="138.00" departLane="51o_0" departPos="5.10" departSpeed="0.00" departDelay="0.00" arrival="273.00" arrivalLane="52i_0" arrivalPos="10.00" arrivalSpeed="13.32" duration="135.00" routeLength="1015.10" waitingTime="0.00" waitingCount="0" stopTime="0.00" timeLoss="47.29" rerouteNo="0" devices="tripinfo_right_32" vType="typeWE@right_32" speedFactor="1.00" vaporized=""/>
    <tripinfo id="up_46" depart="188.00" departLane="53o_0" departPos="7.10" departSpeed="0.00" departDelay="0.00" arrival="279.00" arrivalLane="upup_0" arrivalPos="160.86" arrivalSpeed="16.14" duration="91.00" routeLength="718.35" waitingTime="0.00" waitingCount="0" stopTime="0.00" timeLoss="45.76" rerouteNo="0" devices="tripinfo_up_46" vType="typeNS@up_46" speedFactor="1.00" vaporized=""/>
    <tripinfo id="left_45" depart="171.00" departLane="52o_0" departPos="5.10" departSpeed="0.00" departDelay="1.00" arrival="281.00" arrivalLane="51i_0" arrivalPos="10.00" arrivalSpeed="10.87" duration="110.00" routeLength="1015.10" waitingTime="0.00" waitingCount="0" stopTime="0.00" timeLoss="18.86" rerouteNo="0" devices="tripinfo_left_45" vType="typeWE@left_45" speedFactor="0.88" vaporized=""/>
    <tripinfo id="down_34" depart="146.00" departLane="updown_0" departPos="7.10" departSpeed="0.00" departDelay="0.00" arrival="283.00" arrivalLane="53i_0" arrivalPos="10.00" arrivalSpeed="11.20" duration="137.00" routeLength="718.34" waitingTime="43.00" waitingCount="1" stopTime="0.00" timeLoss="74.22" rerouteNo="0" devices="tripinfo_down_34" vType="typeNS@down_34" speedFactor="1.00" vaporized=""/>
    <tripinfo id="new2_49" depart="201.00" departLane="top2i_0" departPos="5.10" departSpeed="0.00" departDelay="0.00" arrival="284.00" arrivalLane="upup_0" arrivalPos="160.86" arrivalSpeed="19.10" duration="83.00" routeLength="654.25" waitingTime="31.00" waitingCount="1" stopTime="0.00" timeLoss="41.99" rerouteNo="0" devices="tripinfo_new2_49" vType="typeWE@new2_49" speedFactor="1.00" vaporized=""/>
    <tripinfo id="new2_50" depart="204.00" departLane="top2i_0" departPos="5.10" departSpeed="0.00" departDelay="0.00" arrival="289.00" arrivalLane="upup_0" arrivalPos="160.86" arrivalSpeed="18.94" duration="85.00" routeLength="654.25" waitingTime="4.00" waitingCount="2" stopTime="0.00" timeLoss="44.56" rerouteNo="0" devices="tripinfo_new2_50" vType="typeWE@new2_50" speedFactor="1.00" vaporized=""/>
    <tripinfo id="new3_44" depart="169.00" departLane="top2i_0" departPos="5.10" departSpeed="0.00" departDelay="0.00" arrival="292.00" arrivalLane="53i_0" arrivalPos="10.00" arrivalSpeed="12.52" duration="123.00" routeLength="1048.69" waitingTime="20.00" waitingCount="1" stopTime="0.00" timeLoss="43.43" rerouteNo="0" devices="tripinfo_new3_44" vType="typeWE@new3_44" speedFactor="1.00" vaporized=""/>
    <tripinfo id="down_35" depart="152.00" departLane="updown_0" departPos="7.10" departSpeed="0.00" departDelay="5.00" arrival="300.00" arrivalLane="53i_0" arrivalPos="10.00" arrivalSpeed="10.51" duration="148.00" routeLength="718.34" waitingTime="49.00" waitingCount="2" stopTime="0.00" timeLoss="85.42" rerouteNo="0" devices="tripinfo_down_35" vType="typeNS@down_35" speedFactor="1.00" vaporized=""/>
    <tripinfo id="new_40" depart="163.00" departLane="top1i_0" departPos="5.10" departSpeed="0.00" departDelay="1.00" arrival="303.00" arrivalLane="top2o_0" arrivalPos="489.40" arrivalSpeed="19.62" duration="140.00" routeLength="988.37" waitingTime="44.00" waitingCount="1" stopTime="0.00" timeLoss="77.40" rerouteNo="0" devices="tripinfo_new_40" vType="typeWE@new_40" speedFactor="1.00" vaporized=""/>
    <tripinfo id="new_43" depart="167.00" departLane="top1i_0" departPos="5.10" departSpeed="0.00" departDelay="0.00" arrival="310.00" arrivalLane="top2o_0" arrivalPos="489.40" arrivalSpeed="18.50" duration="143.00" routeLength="988.37" waitingTime="12.00" waitingCount="1" stopTime="0.00" timeLoss="79.93" rerouteNo="0" devices="tripinfo_new_43" vType="typeWE@new_43" speedFactor="1.00" vaporized=""/>
    <tripinfo id="new_48" depart="198.00" departLane="top1i_0" departPos="5.10" departSpeed="0.00" departDelay="0.00" arrival="317.00" arrivalLane="top2o_0" arrivalPos="489.40" arrivalSpeed="19.45" duration="119.00" routeLength="988.37" waitingTime="0.00" waitingCount="0" stopTime="0.00" timeLoss="56.09" rerouteNo="0" devices="tripinfo_new_48" vType="typeWE@new_48" speedFactor="1.00" vaporized=""/>
    <tripinfo id="new_52" depart="212.00" departLane="top1i_0" departPos="5.10" departSpeed="0.00" departDelay="0.00" arrival="323.00" arrivalLane="top2o_0" arrivalPos="489.40" arrivalSpeed="19.55" duration="111.00" routeLength="988.37" waitingTime="0.00" waitingCount="0" stopTime="0.00" timeLoss="48.58" rerouteNo="0" devices="tripinfo_new_52" vType="typeWE@new_52" speedFactor="1.00" vaporized=""/>
    <tripinfo id="new2_60" depart="258.00" departLane="top2i_0" departPos="5.10" departSpeed="0.00" departDelay="0.00" arrival="324.00" arrivalLane="upup_0" arrivalPos="160.86" arrivalSpeed="19.98" duration="66.00" routeLength="654.25" waitingTime="19.00" waitingCount="1" stopTime="0.00" timeLoss="30.34" rerouteNo="0" devices="tripinfo_new2_60" vType="typeWE@new2_60" speedFactor="1.00" vaporized=""/>
    <tripinfo id="right_47" depart="201.00" departLane="51o_0" departPos="5.10" departSpeed="0.00" departDelay="4.00" arrival="328.00" arrivalLane="52i_0" arrivalPos="10.00" arrivalSpeed="13.33" duration="127.00" routeLength="1015.10" waitingTime="24.00" waitingCount="1" stopTime="0.00" timeLoss="39.88" rerouteNo="0" devices="tripinfo_right_47" vType="typeWE@right_47" speedFactor="1.00" vaporized=""/>
    <tripinfo id="new_54" depart="229.00" departLane="top1i_0" departPos="5.10" departSpeed="0.00" departDelay="0.00" arrival="330.00" arrivalLane="top2o_0" arrivalPos="489.40" arrivalSpeed="19.70" duration="101.00" routeLength="988.37" waitingTime="0.00" waitingCount="0" stopTime="0.00" timeLoss="38.66" rerouteNo="0" devices="tripinfo_new_54" vType="typeWE@new_54" speedFactor="1.00" vaporized=""/>
    <tripinfo id="right_53" depart="215.00" departLane="51o_0" departPos="5.10" departSpeed="0.00" departDelay="0.00" arrival="337.00" arrivalLane="52i_0" arrivalPos="10.00" arrivalSpeed="12.56" duration="122.00" routeLength="1015.10" waitingTime="0.00" waitingCount="0" stopTime="0.00" timeLoss="34.73" rerouteNo="0" devices="tripinfo_right_53" vType="typeWE@right_53" speedFactor="1.00" vaporized=""/>
    <tripinfo id="new_56" depart="236.00" departLane="top1i_0" departPos="5.10" departSpeed="0.00" departDelay="0.00" arrival="337.00" arrivalLane="top2o_0" arrivalPos="489.40" arrivalSpeed="18.98" duration="101.00" routeLength="988.37" waitingTime="0.00" waitingCount="0" stopTime="0.00" timeLoss="38.45" rerouteNo="0" devices="tripinfo_new_56" vType="typeWE@new_56" speedFactor="1.00" vaporized=""/>
    <tripinfo id="up_55" depart="229.00" departLane="53o_0" departPos="7.10" departSpeed="0.00" departDelay="0.00" arrival="341.00" arrivalLane="upup_0" arrivalPos="160.86" arrivalSpeed="14.62" duration="112.00" routeLength="718.35" waitingTime="37.00" waitingCount="1" stopTime="0.00" timeLoss="66.73" rerouteNo="0" devices="tripinfo_up_55" vType="typeNS@up_55" speedFactor="1.00" vaporized=""/>
    <tripinfo id="left_51" depart="207.00" departLane="52o_0" departPos="5.10" departSpeed="0.00" departDelay="0.00" arrival="344.00" arrivalLane="51i_0" arrivalPos="10.00" arrivalSpeed="10.49" duration="137.00" routeLength="1015.10" waitingTime="29.00" waitingCount="1" stopTime="0.00" timeLoss="46.91" rerouteNo="0" devices="tripinfo_left_51" vType="typeWE@left_51" speedFactor="0.88" vaporized=""/>
    <tripinfo id="up_57" depart="245.00" departLane="53o_0" departPos="7.10" departSpeed="0.00" departDelay="0.00" arrival="347.00" arrivalLane="upup_0" arrivalPos="160.86" arrivalSpeed="14.79" duration="102.00" routeLength="718.35" waitingTime="28.00" waitingCount="1" stopTime="0.00" timeLoss="59.82" rerouteNo="0" devices="tripinfo_up_57" vType="typeNS@up_57" speedFactor="1.00" vaporized=""/>
    <tripinfo id="up_58" depart="251.00" departLane="53o_0" departPos="7.10" departSpeed="0.00" departDelay="4.00" arrival="354.00" arrivalLane="upup_0" arrivalPos="160.86" arrivalSpeed="16.84" duration="103.00" routeLength="718.35" waitingTime="5.00" waitingCount="3" stopTime="0.00" timeLoss="59.05" rerouteNo="0" devices="tripinfo_up_58" vType="typeNS@up_58" speedFactor="1.00" vaporized=""/>
    <tripinfo id="up_68" depart="292.00" departLane="53o_0" departPos="7.10" departSpeed="0.00" departDelay="0.00" arrival="362.00" arrivalLane="upup_0" arrivalPos="160.86" arrivalSpeed="14.97" duration="70.00" routeLength="718.35" waitingTime="0.00" waitingCount="0" stopTime="0.00" timeLoss="26.15" rerouteNo="0" devices="tripinfo_up_68" vType="typeNS@up_68" speedFactor="1.00" vaporized=""/>
    <tripinfo id="up_71" depart="302.00" departLane="53o_0" departPos="7.10" departSpeed="0.00" departDelay="0.00" arrival="369.00" arrivalLane="upup_0" arrivalPos="160.86" arrivalSpeed="15.57" duration="67.00" routeLength="718.35" waitingTime="0.00" waitingCount="0" stopTime="0.00" timeLoss="22.05" rerouteNo="0" devices="tripinfo_up_71" vType="typeNS@up_71" speedFactor="1.00" vaporized=""/>
    <tripinfo id="new3_59" depart="248.00" departLane="top2i_0" departPos="5.10" departSpeed="0.00" departDelay="0.00" arrival="370.00" arrivalLane="53i_0" arrivalPos="10.00" arrivalSpeed="12.45" duration="122.00" routeLength="1048.69" waitingTime="23.00" waitingCount="1" stopTime="0.00" timeLoss="40.27" rerouteNo="0" devices="tripinfo_new3_59" vType="typeWE@new3_59" speedFactor="1.00" vaporized=""/>
    <tripinfo id="down_66" depart="282.00" departLane="updown_0" departPos="7.10" departSpeed="0.00" departDelay="0.00" arrival="382.00" arrivalLane="53i_0" arrivalPos="10.00" arrivalSpeed="11.53" duration="100.00" routeLength="718.34" waitingTime="9.00" waitingCount="1" stopTime="0.00" timeLoss="36.20" rerouteNo="0" devices="tripinfo_down_66" vType="typeNS@down_66" speedFactor="1.00" vaporized=""/>
    <tripinfo id="down_74" depart="307.00" departLane="updown_0" departPos="7.10" departSpeed="0.00" departDelay="0.00" arrival="392.00" arrivalLane="53i_0" arrivalPos="10.00" arrivalSpeed="11.52" duration="85.00" routeLength="718.34" waitingTime="0.00" waitingCount="0" stopTime="0.00" timeLoss="21.69" rerouteNo="0" devices="tripinfo_down_74" vType="typeNS@down_74" speedFactor="1.00" vaporized=""/>
    <tripinfo id="new2_65" depart="280.00" departLane="top2i_0" departPos="5.10" departSpeed="0.00" departDelay="0.00" arrival="393.00" arrivalLane="upup_0" arrivalPos="160.86" arrivalSpeed="18.95" duration="113.00" routeLength="654.25" waitingTime="31.00" waitingCount="3" stopTime="0.00" timeLoss="73.33" rerouteNo="0" devices="tripinfo_new2_65" vType="typeWE@new2_65" speedFactor="1.00" vaporized=""/>
    <tripinfo id="new_62" depart="267.00" departLane="top1i_0" departPos="5.10" departSpeed="0.00" departDelay="0.00" arrival="394.00" arrivalLane="top2o_0" arrivalPos="489.40" arrivalSpeed="19.70" duration="127.00" routeLength="988.37" waitingTime="44.00" waitingCount="1" stopTime="0.00" timeLoss="63.88" rerouteNo="0" devices="tripinfo_new_62" vType="typeWE@new_62" speedFactor="1.00" vaporized=""/>
    <tripinfo id="new2_72" depart="303.00" departLane="top2i_0" departPos="5.10" departSpeed="0.00" departDelay="0.00" arrival="398.00" arrivalLane="upup_0" arrivalPos="160.86" arrivalSpeed="19.79" duration="95.00" routeLength="654.25" waitingTime="2.00" waitingCount="2" stopTime="0.00" timeLoss="57.17" rerouteNo="0" devices="tripinfo_new2_72" vType="typeWE@new2_72" speedFactor="1.00" vaporized=""/>
    <tripinfo id="new_70" depart="301.00" departLane="top1i_0" departPos="5.10" departSpeed="0.00" departDelay="0.00" arrival="400.00" arrivalLane="top2o_0" arrivalPos="489.40" arrivalSpeed="19.19" duration="99.00" routeLength="988.37" waitingTime="0.00" waitingCount="0" stopTime="0.00" timeLoss="37.21" rerouteNo="0" devices="tripinfo_new_70" vType="typeWE@new_70" speedFactor="1.00" vaporized=""/>
    <tripinfo id="down_78" depart="318.00" departLane="updown_0" departPos="7.10" departSpeed="0.00" departDelay="0.00" arrival="402.00" arrivalLane="53i_0" arrivalPos="10.00" arrivalSpeed="11.77" duration="84.00" routeLength="718.34" waitingTime="0.00" waitingCount="0" stopTime="0.00" timeLoss="20.91" rerouteNo="0" devices="tripinfo_down_78" vType="typeNS@down_78" speedFactor="1.00" vaporized=""/>
    <tripinfo id="new_73" depart="304.00" departLane="top1i_0" departPos="5.10" departSpeed="0.00" departDelay="1.00" arrival="407.00" arrivalLane="top2o_0" arrivalPos="489.40" arrivalSpeed="19.96" duration="103.00" routeLength="988.37" waitingTime="0.00" waitingCount="0" stopTime="0.00" timeLoss="40.26" rerouteNo="0" devices="tripinfo_new_73" vType="typeWE@new_73" speedFactor="1.00" vaporized=""/>
    <tripinfo id="right_63" depart="276.00" departLane="51o_0" departPos="5.10" departSpeed="0.00" departDelay="0.00" arrival="419.00" arrivalLane="52i_0" arrivalPos="10.00" arrivalSpeed="12.03" duration="143.00" routeLength="1015.10" waitingTime="40.00" waitingCount="1" stopTime="0.00" timeLoss="55.65" rerouteNo="0" devices="tripinfo_right_63" vType="typeWE@right_63" speedFactor="1.00" vaporized=""/>