<?xml version="1.0" encoding="UTF-8"?>

<!-- generated on воскресенье, 14 июня 2020 г. 21:13:37 by Eclipse SUMO GUI Version 1.5.0
<configuration xmlns:xsi="http://www.w3.org/2001/XMLSchema-instance" xsi:noNamespaceSchemaLocation="http://sumo.dlr.de/xsd/sumoConfiguration.xsd">

    <input>
        <net-file value="data/cross.net.xml"/>
        <route-files value="data/cross.rou.xml"/>
    </input>

    <output>
        <fcd-output value="results/result_rain.xml"/>
        <tripinfo-output value="tripinfo.xml"/>
    </output>

    <time>
        <begin value="0"/>
    </time>

    <processing>
        <ignore-route-errors value="true"/>
        <collision.mingap-factor value="0"/>
    </processing>

    <report>
        <verbose value="true"/>
        <no-warnings value="true"/>
        <no-step-log value="true"/>
    </report>

    <traci_server>
        <remote-port value="55361"/>
    </traci_server>

</configuration>
-->

<tripinfos xmlns:xsi="http://www.w3.org/2001/XMLSchema-instance" xsi:noNamespaceSchemaLocation="http://sumo.dlr.de/xsd/tripinfo_file.xsd">
    <tripinfo id="new_0" depart="1.00" departLane="top1i_0" departPos="5.10" departSpeed="0.00" departDelay="0.00" arrival="71.00" arrivalLane="top2o_0" arrivalPos="489.40" arrivalSpeed="19.07" duration="70.00" routeLength="988.37" waitingTime="0.00" waitingCount="0" stopTime="0.00" timeLoss="7.19" rerouteNo="0" devices="tripinfo_new_0 fcd_new_0" vType="typeWE@new_0" speedFactor="1.00" vaporized=""/>
    <tripinfo id="down_2" depart="9.00" departLane="updown_0" departPos="7.10" departSpeed="0.00" departDelay="0.00" arrival="112.00" arrivalLane="53i_0" arrivalPos="10.00" arrivalSpeed="11.06" duration="103.00" routeLength="718.34" waitingTime="13.00" waitingCount="1" stopTime="0.00" timeLoss="40.27" rerouteNo="0" devices="tripinfo_down_2 fcd_down_2" vType="typeNS@down_2" speedFactor="1.00" vaporized=""/>
    <tripinfo id="new_1" depart="4.00" departLane="top1i_0" departPos="5.10" departSpeed="0.00" departDelay="2.00" arrival="123.00" arrivalLane="top2o_0" arrivalPos="489.40" arrivalSpeed="19.20" duration="119.00" routeLength="988.37" waitingTime="39.00" waitingCount="1" stopTime="0.00" timeLoss="56.60" rerouteNo="0" devices="tripinfo_new_1 fcd_new_1" vType="typeWE@new_1" speedFactor="1.00" vaporized=""/>
    <tripinfo id="new_3" depart="12.00" departLane="top1i_0" departPos="5.10" departSpeed="0.00" departDelay="0.00" arrival="130.00" arrivalLane="top2o_0" arrivalPos="489.40" arrivalSpeed="19.64" duration="118.00" routeLength="988.37" waitingTime="5.00" waitingCount="2" stopTime="0.00" timeLoss="55.17" rerouteNo="0" devices="tripinfo_new_3 fcd_new_3" vType="typeWE@new_3" speedFactor="1.00" vaporized=""/>
    <tripinfo id="down_11" depart="52.00" departLane="updown_0" departPos="7.10" departSpeed="0.00" departDelay="0.00" arrival="131.00" arrivalLane="53i_0" arrivalPos="10.00" arrivalSpeed="10.91" duration="79.00" routeLength="718.34" waitingTime="0.00" waitingCount="0" stopTime="0.00" timeLoss="16.31" rerouteNo="0" devices="tripinfo_down_11 fcd_down_11" vType="typeNS@down_11" speedFactor="1.00" vaporized=""/>
    <tripinfo id="new_5" depart="17.00" departLane="top1i_0" departPos="5.10" departSpeed="0.00" departDelay="0.00" arrival="136.00" arrivalLane="top2o_0" arrivalPos="489.40" arrivalSpeed="19.02" duration="119.00" routeLength="988.37" waitingTime="0.00" waitingCount="0" stopTime="0.00" timeLoss="56.77" rerouteNo="0" devices="tripinfo_new_5 fcd_new_5" vType="typeWE@new_5" speedFactor="1.00" vaporized=""/>
    <tripinfo id="new_14" depart="68.00" departLane="top1i_0" departPos="5.10" departSpeed="0.00" departDelay="0.00" arrival="143.00" arrivalLane="top2o_0" arrivalPos="489.40" arrivalSpeed="19.11" duration="75.00" routeLength="988.37" waitingTime="0.00" waitingCount="0" stopTime="0.00" timeLoss="12.44" rerouteNo="0" devices="tripinfo_new_14 fcd_new_14" vType="typeWE@new_14" speedFactor="1.00" vaporized=""/>
    <tripinfo id="right_6" depart="18.00" departLane="51o_0" departPos="5.10" departSpeed="0.00" departDelay="0.00" arrival="147.00" arrivalLane="52i_0" arrivalPos="10.00" arrivalSpeed="12.33" duration="129.00" routeLength="1015.10" waitingTime="28.00" waitingCount="1" stopTime="0.00" timeLoss="41.70" rerouteNo="0" devices="tripinfo_right_6 fcd_right_6" vType="typeWE@right_6" speedFactor="1.00" vaporized=""/>
    <tripinfo id="up_10" depart="48.00" departLane="53o_0" departPos="7.10" departSpeed="0.00" departDelay="0.00" arrival="159.00" arrivalLane="upup_0" arrivalPos="160.86" arrivalSpeed="16.55" duration="111.00" routeLength="718.35" waitingTime="40.00" waitingCount="1" stopTime="0.00" timeLoss="67.87" rerouteNo="0" devices="tripinfo_up_10 fcd_up_10" vType="typeNS@up_10" speedFactor="1.00" vaporized=""/>
    <tripinfo id="right_13" depart="61.00" departLane="51o_0" departPos="5.10" departSpeed="0.00" departDelay="0.00" arrival="160.00" arrivalLane="52i_0" arrivalPos="10.00" arrivalSpeed="13.88" duration="99.00" routeLength="1015.10" waitingTime="0.00" waitingCount="0" stopTime="0.00" timeLoss="11.18" rerouteNo="0" devices="tripinfo_right_13 fcd_right_13" vType="typeWE@right_13" speedFactor="1.00" vaporized=""/>
    <tripinfo id="left_7" depart="38.00" departLane="52o_0" departPos="5.10" departSpeed="0.00" departDelay="0.00" arrival="162.00" arrivalLane="51i_0" arrivalPos="10.00" arrivalSpeed="10.91" duration="124.00" routeLength="1015.10" waitingTime="11.00" waitingCount="1" stopTime="0.00" timeLoss="28.07" rerouteNo="0" devices="tripinfo_left_7 fcd_left_7" vType="typeWE@left_7" speedFactor="0.88" vaporized=""/>
    <tripinfo id="left_8" depart="41.00" departLane="52o_0" departPos="5.10" departSpeed="0.00" departDelay="0.00" arrival="171.00" arrivalLane="51i_0" arrivalPos="10.00" arrivalSpeed="11.08" duration="130.00" routeLength="1015.10" waitingTime="0.00" waitingCount="0" stopTime="0.00" timeLoss="35.65" rerouteNo="0" devices="tripinfo_left_8 fcd_left_8" vType="typeWE@left_8" speedFactor="0.88" vaporized=""/>
    <tripinfo id="right_17" depart="72.00" departLane="51o_0" departPos="5.10" departSpeed="0.00" departDelay="0.00" arrival="171.00" arrivalLane="52i_0" arrivalPos="10.00" arrivalSpeed="11.23" duration="99.00" routeLength="1015.10" waitingTime="0.00" waitingCount="0" stopTime="0.00" timeLoss="11.77" rerouteNo="0" devices="tripinfo_right_17 fcd_right_17" vType="typeWE@right_17" speedFactor="1.00" vaporized=""/>
    <tripinfo id="left_9" depart="43.00" departLane="52o_0" departPos="5.10" departSpeed="0.00" departDelay="1.00" arrival="180.00" arrivalLane="51i_0" arrivalPos="10.00" arrivalSpeed="11.37" duration="137.00" routeLength="1015.10" waitingTime="0.00" waitingCount="0" stopTime="0.00" timeLoss="40.69" rerouteNo="0" devices="tripinfo_left_9 fcd_left_9" vType="typeWE@left_9" speedFactor="0.88" vaporized=""/>
    <tripinfo id="right_18" depart="75.00" departLane="51o_0" departPos="5.10" departSpeed="0.00" departDelay="1.00" arrival="182.00" arrivalLane="52i_0" arrivalPos="10.00" arrivalSpeed="11.64" duration="107.00" routeLength="1015.10" waitingTime="0.00" waitingCount="0" stopTime="0.00" timeLoss="19.53" rerouteNo="0" devices="tripinfo_right_18 fcd_right_18" vType="typeWE@right_18" speedFactor="1.00" vaporized=""/>
    <tripinfo id="left_15" depart="70.00" departLane="52o_0" departPos="5.10" departSpeed="0.00" departDelay="0.00" arrival="189.00" arrivalLane="51i_0" arrivalPos="10.00" arrivalSpeed="10.61" duration="119.00" routeLength="1015.10" waitingTime="0.00" waitingCount="0" stopTime="0.00" timeLoss="24.88" rerouteNo="0" devices="tripinfo_left_15 fcd_left_15" vType="typeWE@left_15" speedFactor="0.88" vaporized=""/>
    <tripinfo id="new3_4" depart="14.00" departLane="top2i_0" departPos="5.10" departSpeed="0.00" departDelay="0.00" arrival="191.00" arrivalLane="53i_0" arrivalPos="10.00" arrivalSpeed="13.27" duration="177.00" routeLength="1048.69" waitingTime="73.00" waitingCount="3" stopTime="0.00" timeLoss="96.86" rerouteNo="0" devices="tripinfo_new3_4 fcd_new3_4" vType="typeWE@new3_4" speedFactor="1.00" vaporized=""/>
    <tripinfo id="left_19" depart="75.00" departLane="52o_0" departPos="5.10" departSpeed="0.00" departDelay="0.00" arrival="198.00" arrivalLane="51i_0" arrivalPos="10.00" arrivalSpeed="10.76" duration="123.00" routeLength="1015.10" waitingTime="0.00" waitingCount="0" stopTime="0.00" timeLoss="33.56" rerouteNo="0" devices="tripinfo_left_19 fcd_left_19" vType="typeWE@left_19" speedFactor="0.88" vaporized=""/>
    <tripinfo id="new3_12" depart="56.00" departLane="top2i_0" departPos="5.10" departSpeed="0.00" departDelay="0.00" arrival="199.00" arrivalLane="53i_0" arrivalPos="10.00" arrivalSpeed="11.79" duration="143.00" routeLength="1048.69" waitingTime="0.00" waitingCount="0" stopTime="0.00" timeLoss="63.20" rerouteNo="0" devices="tripinfo_new3_12 fcd_new3_12" vType="typeWE@new3_12" speedFactor="1.00" vaporized=""/>
    <tripinfo id="down_16" depart="71.00" departLane="updown_0" departPos="7.10" departSpeed="0.00" departDelay="0.00" arrival="208.00" arrivalLane="53i_0" arrivalPos="10.00" arrivalSpeed="11.98" duration="137.00" routeLength="718.34" waitingTime="39.00" waitingCount="1" stopTime="0.00" timeLoss="73.00" rerouteNo="0" devices="tripinfo_down_16 fcd_down_16" vType="typeNS@down_16" speedFactor="1.00" vaporized=""/>
    <tripinfo id="down_20" depart="77.00" departLane="updown_0" departPos="7.10" departSpeed="0.00" departDelay="0.00" arrival="215.00" arrivalLane="53i_0" arrivalPos="10.00" arrivalSpeed="11.42" duration="138.00" routeLength="718.34" waitingTime="17.00" waitingCount="3" stopTime="0.00" timeLoss="75.22" rerouteNo="0" devices="tripinfo_down_20 fcd_down_20" vType="typeNS@down_20" speedFactor="1.00" vaporized=""/>
    <tripinfo id="new_23" depart="97.00" departLane="top1i_0" departPos="5.10" departSpeed="0.00" departDelay="0.00" arrival="215.00" arrivalLane="top2o_0" arrivalPos="489.40" arrivalSpeed="19.21" duration="118.00" routeLength="988.37" waitingTime="40.00" waitingCount="1" stopTime="0.00" timeLoss="54.68" rerouteNo="0" devices="tripinfo_new_23 fcd_new_23" vType="typeWE@new_23" speedFactor="1.00" vaporized=""/>
    <tripinfo id="new_25" depart="116.00" departLane="top1i_0" departPos="5.10" departSpeed="0.00" departDelay="0.00" arrival="221.00" arrivalLane="top2o_0" arrivalPos="489.40" arrivalSpeed="18.91" duration="105.00" routeLength="988.37" waitingTime="0.00" waitingCount="0" stopTime="0.00" timeLoss="41.93" rerouteNo="0" devices="tripinfo_new_25 fcd_new_25" vType="typeWE@new_25" speedFactor="1.00" vaporized=""/>
    <tripinfo id="down_30" depart="136.00" departLane="updown_0" departPos="7.10" departSpeed="0.00" departDelay="0.00" arrival="224.00" arrivalLane="53i_0" arrivalPos="10.00" arrivalSpeed="12.08" duration="88.00" routeLength="718.34" waitingTime="0.00" waitingCount="0" stopTime="0.00" timeLoss="25.88" rerouteNo="0" devices="tripinfo_down_30 fcd_down_30" vType="typeNS@down_30" speedFactor="1.00" vaporized=""/>
    <tripinfo id="new_29" depart="129.00" departLane="top1i_0" departPos="5.10" departSpeed="0.00" departDelay="0.00" arrival="227.00" arrivalLane="top2o_0" arrivalPos="489.40" arrivalSpeed="19.27" duration="98.00" routeLength="988.37" waitingTime="0.00" waitingCount="0" stopTime="0.00" timeLoss="35.64" rerouteNo="0" devices="tripinfo_new_29 fcd_new_29" vType="typeWE@new_29" speedFactor="1.00" vaporized=""/>
    <tripinfo id="new_32" depart="144.00" departLane="top1i_0" departPos="5.10" departSpeed="0.00" departDelay="0.00" arrival="234.00" arrivalLane="top2o_0" arrivalPos="489.40" arrivalSpeed="19.58" duration="90.00" routeLength="988.37" waitingTime="0.00" waitingCount="0" stopTime="0.00" timeLoss="26.93" rerouteNo="0" devices="tripinfo_new_32 fcd_new_32" vType="typeWE@new_32" speedFactor="1.00" vaporized=""/>
    <tripinfo id="right_22" depart="91.00" departLane="51o_0" departPos="5.10" departSpeed="0.00" departDelay="0.00" arrival="238.00" arrivalLane="52i_0" arrivalPos="10.00" arrivalSpeed="12.71" duration="147.00" routeLength="1015.10" waitingTime="44.00" waitingCount="1" stopTime="0.00" timeLoss="59.71" rerouteNo="0" devices="tripinfo_right_22 fcd_right_22" vType="typeWE@right_22" speedFactor="1.00" vaporized=""/>
    <tripinfo id="new_35" depart="147.00" departLane="top1i_0" departPos="5.10" departSpeed="0.00" departDelay="0.00" arrival="240.00" arrivalLane="top2o_0" arrivalPos="489.40" arrivalSpeed="19.84" duration="93.00" routeLength="988.37" waitingTime="0.00" waitingCount="0" stopTime="0.00" timeLoss="30.46" rerouteNo="0" devices="tripinfo_new_35 fcd_new_35" vType="typeWE@new_35" speedFactor="1.00" vaporized=""/>
    <tripinfo id="right_24" depart="104.00" departLane="51o_0" departPos="5.10" departSpeed="0.00" departDelay="0.00" arrival="247.00" arrivalLane="52i_0" arrivalPos="10.00" arrivalSpeed="11.36" duration="143.00" routeLength="1015.10" waitingTime="5.00" waitingCount="1" stopTime="0.00" timeLoss="55.12" rerouteNo="0" devices="tripinfo_right_24 fcd_right_24" vType="typeWE@right_24" speedFactor="1.00" vaporized=""/>
    <tripinfo id="new_36" depart="160.00" departLane="top1i_0" departPos="5.10" departSpeed="0.00" departDelay="0.00" arrival="248.00" arrivalLane="top2o_0" arrivalPos="489.40" arrivalSpeed="18.96" duration="88.00" routeLength="988.37" waitingTime="0.00" waitingCount="0" stopTime="0.00" timeLoss="25.07" rerouteNo="0" devices="tripinfo_new_36 fcd_new_36" vType="typeWE@new_36" speedFactor="1.00" vaporized=""/>
    <tripinfo id="left_21" depart="85.00" departLane="52o_0" departPos="5.10" departSpeed="0.00" departDelay="0.00" arrival="251.00" arrivalLane="51i_0" arrivalPos="10.00" arrivalSpeed="10.85" duration="166.00" routeLength="1015.10" waitingTime="46.00" waitingCount="1" stopTime="0.00" timeLoss="73.80" rerouteNo="0" devices="tripinfo_left_21 fcd_left_21" vType="typeWE@left_21" speedFactor="0.88" vaporized=""/>
    <tripinfo id="up_37" depart="161.00" departLane="53o_0" departPos="7.10" departSpeed="0.00" departDelay="0.00" arrival="253.00" arrivalLane="upup_0" arrivalPos="160.86" arrivalSpeed="16.49" duration="92.00" routeLength="718.35" waitingTime="22.00" waitingCount="1" stopTime="0.00" timeLoss="51.01" rerouteNo="0" devices="tripinfo_up_37 fcd_up_37" vType="typeNS@up_37" speedFactor="1.00" vaporized=""/>
    <tripinfo id="right_26" depart="118.00" departLane="51o_0" departPos="5.10" departSpeed="0.00" departDelay="0.00" arrival="256.00" arrivalLane="52i_0" arrivalPos="10.00" arrivalSpeed="12.43" duration="138.00" routeLength="1015.10" waitingTime="0.00" waitingCount="0" stopTime="0.00" timeLoss="50.57" rerouteNo="0" devices="tripinfo_right_26 fcd_right_26" vType="typeWE@right_26" speedFactor="1.00" vaporized=""/>
    <tripinfo id="left_27" depart="123.00" departLane="52o_0" departPos="5.10" departSpeed="0.00" departDelay="0.00" arrival="260.00" arrivalLane="51i_0" arrivalPos="10.00" arrivalSpeed="10.87" duration="137.00" routeLength="1015.10" waitingTime="0.00" waitingCount="0" stopTime="0.00" timeLoss="42.95" rerouteNo="0" devices="tripinfo_left_27 fcd_left_27" vType="typeWE@left_27" speedFactor="0.88" vaporized=""/>
    <tripinfo id="up_40" depart="167.00" departLane="53o_0" departPos="7.10" departSpeed="0.00" departDelay="1.00" arrival="261.00" arrivalLane="upup_0" arrivalPos="160.86" arrivalSpeed="16.13" duration="94.00" routeLength="718.35" waitingTime="1.00" waitingCount="1" stopTime="0.00" timeLoss="49.37" rerouteNo="0" devices="tripinfo_up_40 fcd_up_40" vType="typeNS@up_40" speedFactor="1.00" vaporized=""/>
    <tripinfo id="right_28" depart="126.00" departLane="51o_0" departPos="5.10" departSpeed="0.00" departDelay="0.00" arrival="264.00" arrivalLane="52i_0" arrivalPos="10.00" arrivalSpeed="11.86" duration="138.00" routeLength="1015.10" waitingTime="0.00" waitingCount="0" stopTime="0.00" timeLoss="50.39" rerouteNo="0" devices="tripinfo_right_28 fcd_right_28" vType="typeWE@right_28" speedFactor="1.00" vaporized=""/>
    <tripinfo id="right_31" depart="138.00" departLane="51o_0" departPos="5.10" departSpeed="0.00" departDelay="0.00" arrival="271.00" arrivalLane="52i_0" arrivalPos="10.00" arrivalSpeed="12.28" duration="133.00" routeLength="1015.10" waitingTime="0.00" waitingCount="0" stopTime="0.00" timeLoss="45.92" rerouteNo="0" devices="tripinfo_right_31 fcd_right_31" vType="typeWE@right_31" speedFactor="1.00" vaporized=""/>
    <tripinfo id="left_39" depart="166.00" departLane="52o_0" departPos="5.10" departSpeed="0.00" departDelay="0.00" arrival="272.00" arrivalLane="51i_0" arrivalPos="10.00" arrivalSpeed="11.36" duration="106.00" routeLength="1015.10" waitingTime="0.00" waitingCount="0" stopTime="0.00" timeLoss="10.94" rerouteNo="0" devices="tripinfo_left_39 fcd_left_39" vType="typeWE@left_39" speedFactor="0.88" vaporized=""/>
    <tripinfo id="left_42" depart="171.00" departLane="52o_0" departPos="5.10" departSpeed="0.00" departDelay="1.00" arrival="282.00" arrivalLane="51i_0" arrivalPos="10.00" arrivalSpeed="11.66" duration="111.00" routeLength="1015.10" waitingTime="0.00" waitingCount="0" stopTime="0.00" timeLoss="19.60" rerouteNo="0" devices="tripinfo_left_42 fcd_left_42" vType="typeWE@left_42" speedFactor="0.88" vaporized=""/>
    <tripinfo id="down_33" depart="146.00" departLane="updown_0" departPos="7.10" departSpeed="0.00" departDelay="0.00" arrival="285.00" arrivalLane="53i_0" arrivalPos="10.00" arrivalSpeed="11.85" duration="139.00" routeLength="718.34" waitingTime="46.00" waitingCount="1" stopTime="0.00" timeLoss="77.07" rerouteNo="0" devices="tripinfo_down_33 fcd_down_33" vType="typeNS@down_33" speedFactor="1.00" vaporized=""/>
    <tripinfo id="down_34" depart="151.00" departLane="updown_0" departPos="7.10" departSpeed="0.00" departDelay="4.00" arrival="293.00" arrivalLane="53i_0" arrivalPos="10.00" arrivalSpeed="11.19" duration="142.00" routeLength="718.34" waitingTime="19.00" waitingCount="5" stopTime="0.00" timeLoss="79.06" rerouteNo="0" devices="tripinfo_down_34 fcd_down_34" vType="typeNS@down_34" speedFactor="1.00" vaporized=""/>
    <tripinfo id="new2_51" depart="258.00" departLane="top2i_0" departPos="5.10" departSpeed="0.00" departDelay="0.00" arrival="298.00" arrivalLane="upup_0" arrivalPos="160.86" arrivalSpeed="19.11" duration="40.00" routeLength="654.25" waitingTime="0.00" waitingCount="0" stopTime="0.00" timeLoss="6.08" rerouteNo="0" devices="tripinfo_new2_51 fcd_new2_51" vType="typeWE@new2_51" speedFactor="1.00" vaporized=""/>
    <tripinfo id="new_38" depart="163.00" departLane="top1i_0" departPos="5.10" departSpeed="0.00" departDelay="1.00" arrival="303.00" arrivalLane="top2o_0" arrivalPos="489.40" arrivalSpeed="18.53" duration="140.00" routeLength="988.37" waitingTime="44.00" waitingCount="1" stopTime="0.00" timeLoss="77.27" rerouteNo="0" devices="tripinfo_new_38 fcd_new_38" vType="typeWE@new_38" speedFactor="1.00" vaporized=""/>
    <tripinfo id="new_41" depart="167.00" departLane="top1i_0" departPos="5.10" departSpeed="0.00" departDelay="0.00" arrival="309.00" arrivalLane="top2o_0" arrivalPos="489.40" arrivalSpeed="18.50" duration="142.00" routeLength="988.37" waitingTime="14.00" waitingCount="2" stopTime="0.00" timeLoss="79.67" rerouteNo="0" devices="tripinfo_new_41 fcd_new_41" vType="typeWE@new_41" speedFactor="1.00" vaporized=""/>
    <tripinfo id="new_44" depart="198.00" departLane="top1i_0" departPos="5.10" departSpeed="0.00" departDelay="0.00" arrival="316.00" arrivalLane="top2o_0" arrivalPos="489.40" arrivalSpeed="18.73" duration="118.00" routeLength="988.37" waitingTime="0.00" waitingCount="0" stopTime="0.00" timeLoss="55.19" rerouteNo="0" devices="tripinfo_new_44 fcd_new_44" vType="typeWE@new_44" speedFactor="1.00" vaporized=""/>
    <tripinfo id="new_46" depart="212.00" departLane="top1i_0" departPos="5.10" departSpeed="0.00" departDelay="0.00" arrival="323.00" arrivalLane="top2o_0" arrivalPos="489.40" arrivalSpeed="19.03" duration="111.00" routeLength="988.37" waitingTime="0.00" waitingCount="0" stopTime="0.00" timeLoss="47.54" rerouteNo="0" devices="tripinfo_new_46 fcd_new_46" vType="typeWE@new_46" speedFactor="1.00" vaporized=""/>
    <tripinfo id="right_43" depart="198.00" departLane="51o_0" departPos="5.10" departSpeed="0.00" departDelay="1.00" arrival="328.00" arrivalLane="52i_0" arrivalPos="10.00" arrivalSpeed="12.62" duration="130.00" routeLength="1015.10" waitingTime="28.00" waitingCount="1" stopTime="0.00" timeLoss="42.40" rerouteNo="0" devices="tripinfo_right_43 fcd_right_43" vType="typeWE@right_43" speedFactor="1.00" vaporized=""/>
    <tripinfo id="new_48" depart="229.00" departLane="top1i_0" departPos="5.10" departSpeed="0.00" departDelay="0.00" arrival="329.00" arrivalLane="top2o_0" arrivalPos="489.40" arrivalSpeed="18.94" duration="100.00" routeLength="988.37" waitingTime="0.00" waitingCount="0" stopTime="0.00" timeLoss="37.67" rerouteNo="0" devices="tripinfo_new_48 fcd_new_48" vType="typeWE@new_48" speedFactor="1.00" vaporized=""/>
    <tripinfo id="right_47" depart="215.00" departLane="51o_0" departPos="5.10" departSpeed="0.00" departDelay="0.00" arrival="336.00" arrivalLane="52i_0" arrivalPos="10.00" arrivalSpeed="10.78" duration="121.00" routeLength="1015.10" waitingTime="0.00" waitingCount="0" stopTime="0.00" timeLoss="34.10" rerouteNo="0" devices="tripinfo_right_47 fcd_right_47" vType="typeWE@right_47" speedFactor="1.00" vaporized=""/>
    <tripinfo id="new_49" depart="236.00" departLane="top1i_0" departPos="5.10" departSpeed="0.00" departDelay="0.00" arrival="336.00" arrivalLane="top2o_0" arrivalPos="489.40" arrivalSpeed="18.75" duration="100.00" routeLength="988.37" waitingTime="0.00" waitingCount="0" stopTime="0.00" timeLoss="37.33" rerouteNo="0" devices="tripinfo_new_49 fcd_new_49" vType="typeWE@new_49" speedFactor="1.00" vaporized=""/>
    <tripinfo id="left_45" depart="207.00" departLane="52o_0" departPos="5.10" departSpeed="0.00" departDelay="0.00" arrival="342.00" arrivalLane="51i_0" arrivalPos="10.00" arrivalSpeed="10.49" duration="135.00" routeLength="1015.10" waitingTime="29.00" waitingCount="1" stopTime="0.00" timeLoss="44.60" rerouteNo="0" devices="tripinfo_left_45 fcd_left_45" vType="typeWE@left_45" speedFactor="0.88" vaporized=""/>
    <tripinfo id="up_50" depart="245.00" departLane="53o_0" departPos="7.10" departSpeed="0.00" departDelay="0.00" arrival="343.00" arrivalLane="upup_0" arrivalPos="160.86" arrivalSpeed="15.50" duration="98.00" routeLength="718.35" waitingTime="25.00" waitingCount="1" stopTime="0.00" timeLoss="49.80" rerouteNo="0" devices="tripinfo_up_50 fcd_up_50" vType="typeNS@up_50" speedFactor="1.00" vaporized=""/>
    <tripinfo id="new_53" depart="267.00" departLane="top1i_0" departPos="5.10" departSpeed="0.00" departDelay="0.00" arrival="343.00" arrivalLane="top2o_0" arrivalPos="489.40" arrivalSpeed="19.38" duration="76.00" routeLength="988.37" waitingTime="0.00" waitingCount="0" stopTime="0.00" timeLoss="13.38" rerouteNo="0" devices="tripinfo_new_53 fcd_new_53" vType="typeWE@new_53" speedFactor="1.00" vaporized=""/>
    <tripinfo id="up_59" depart="293.00" departLane="53o_0" departPos="7.10" departSpeed="0.00" departDelay="1.00" arrival="359.00" arrivalLane="upup_0" arrivalPos="160.86" arrivalSpeed="15.09" duration="66.00" routeLength="718.35" waitingTime="0.00" waitingCount="0" stopTime="0.00" timeLoss="20.40" rerouteNo="0" devices="tripinfo_up_59 fcd_up_59" vType="typeNS@up_59" speedFactor="1.00" vaporized=""/>
    <tripinfo id="up_62" depart="302.00" departLane="53o_0" departPos="7.10" departSpeed="0.00" departDelay="0.00" arrival="367.00" arrivalLane="upup_0" arrivalPos="160.86" arrivalSpeed="17.29" duration="65.00" routeLength="718.35" waitingTime="0.00" waitingCount="0" stopTime="0.00" timeLoss="20.05" rerouteNo="0" devices="tripinfo_up_62 fcd_up_62" vType="typeNS@up_62" speedFactor="1.00" vaporized=""/>
    <tripinfo id="new2_56" depart="280.00" departLane="top2i_0" departPos="5.10" departSpeed="0.00" departDelay="0.00" arrival="374.00" arrivalLane="upup_0" arrivalPos="160.86" arrivalSpeed="18.84" duration="94.00" routeLength="654.25" waitingTime="44.00" waitingCount="1" stopTime="0.00" timeLoss="54.15" rerouteNo="0" devices="tripinfo_new2_56 fcd_new2_56" vType="typeWE@new2_56" speedFactor="1.00" vaporized=""/>
    <tripinfo id="new3_52" depart="262.00" departLane="top2i_0" departPos="5.10" departSpeed="0.00" departDelay="0.00" arrival="375.00" arrivalLane="53i_0" arrivalPos="10.00" arrivalSpeed="10.68" duration="113.00" routeLength="1048.69" waitingTime="18.00" waitingCount="1" stopTime="0.00" timeLoss="32.77" rerouteNo="0" devices="tripinfo_new3_52 fcd_new3_52" vType="typeWE@new3_52" speedFactor="1.00" vaporized=""/>
    <tripinfo id="new2_63" depart="303.00" departLane="top2i_0" departPos="5.10" departSpeed="0.00" departDelay="0.00" arrival="378.00" arrivalLane="upup_0" arrivalPos="160.86" arrivalSpeed="19.86" duration="75.00" routeLength="654.25" waitingTime="3.00" waitingCount="2" stopTime="0.00" timeLoss="38.09" rerouteNo="0" devices="tripinfo_new2_63 fcd_new2_63" vType="typeWE@new2_63" speedFactor="1.00" vaporized=""/>
    <tripinfo id="down_57" depart="282.00" departLane="updown_0" departPos="7.10" departSpeed="0.00" departDelay="0.00" arrival="386.00" arrivalLane="53i_0" arrivalPos="10.00" arrivalSpeed="10.92" duration="104.00" routeLength="718.34" waitingTime="9.00" waitingCount="1" stopTime="0.00" timeLoss="41.61" rerouteNo="0" devices="tripinfo_down_57 fcd_down_57" vType="typeNS@down_57" speedFactor="1.00" vaporized=""/>
    <tripinfo id="new_61" depart="301.00" departLane="top1i_0" departPos="5.10" departSpeed="0.00" departDelay="0.00" arrival="393.00" arrivalLane="top2o_0" arrivalPos="489.40" arrivalSpeed="19.50" duration="92.00" routeLength="988.37" waitingTime="15.00" waitingCount="1" stopTime="0.00" timeLoss="29.60" rerouteNo="0" devices="tripinfo_new_61 fcd_new_61" vType="typeWE@new_61" speedFactor="1.00" vaporized=""/>
    <tripinfo id="down_65" depart="307.00" departLane="updown_0" departPos="7.10" departSpeed="0.00" departDelay="0.00" arrival="394.00" arrivalLane="53i_0" arrivalPos="10.00" arrivalSpeed="10.30" duration="87.00" routeLength="718.34" waitingTime="0.00" waitingCount="0" stopTime="0.00" timeLoss="23.20" rerouteNo="0" devices="tripinfo_down_65 fcd_down_65" vType="typeNS@down_65" speedFactor="1.00" vaporized=""/>
    <tripinfo id="new_64" depart="304.00" departLane="top1i_0" departPos="5.10" departSpeed="0.00" departDelay="1.00" arrival="400.00" arrivalLane="top2o_0" arrivalPos="489.40" arrivalSpeed="19.89" duration="96.00" routeLength="988.37" waitingTime="0.00" waitingCount="0" stopTime="0.00" timeLoss="33.10" rerouteNo="0" devices="tripinfo_new_64 fcd_new_64" vType="typeWE@new_64" speedFactor="1.00" vaporized=""/>
    <tripinfo id="down_68" depart="318.00" departLane="updown_0" departPos="7.10" departSpeed="0.00" departDelay="0.00" arrival="403.00" arrivalLane="53i_0" arrivalPos="10.00" arrivalSpeed="11.24" duration="85.00" routeLength="718.34" waitingTime="0.00" waitingCount="0" stopTime="0.00" timeLoss="22.34" rerouteNo="0" devices="tripinfo_down_68 fcd_down_68" vType="typeNS@down_68" speedFactor="1.00" vaporized=""/>
    <tripinfo id="new2_75" depart="366.00" departLane="top2i_0" departPos="5.10" departSpeed="0.00" departDelay="0.00" arrival="413.00" arrivalLane="upup_0" arrivalPos="160.86" arrivalSpeed="18.93" duration="47.00" routeLength="654.25" waitingTime="0.00" waitingCount="0" stopTime="0.00" timeLoss="9.43" rerouteNo="0" devices="tripinfo_new2_75 fcd_new2_75" vType="typeWE@new2_75" speedFactor="1.00" vaporized=""/>
    <tripinfo id="right_54" depart="276.00" departLane="51o_0" departPos="5.10" departSpeed="0.00" departDelay="0.00" arrival="418.00" arrivalLane="52i_0" arrivalPos="10.00" arrivalSpeed="12.09" duration="142.00" routeLength="1015.10" waitingTime="40.00" waitingCount="1" stopTime="0.00" timeLoss="55.06" rerouteNo="0" devices="tripinfo_right_54 fcd_right_54" vType="typeWE@right_54" speedFactor="1.00" vaporized=""/>
    <tripinfo id="right_55" depart="282.00" departLane="51o_0" departPos="5.10" departSpeed="0.00" departDelay="5.00" arrival="427.00" arrivalLane="52i_0" arrivalPos="10.00" arrivalSpeed="11.88" duration="145.00" routeLength="1015.10" waitingTime="3.00" waitingCount="2" stopTime="0.00" timeLoss="57.21" rerouteNo="0" devices="tripinfo_right_55 fcd_right_55" vType="typeWE@right_55" speedFactor="1.00" vaporized=""/>
    <tripinfo id="left_60" depart="300.00" departLane="52o_0" departPos="5.10" departSpeed="0.00" departDelay="0.00" arrival="432.00" arrivalLane="51i_0" arrivalPos="10.00" arrivalSpeed="10.92" duration="132.00" routeLength="1015.10" waitingTime="25.00" waitingCount="1" stopTime="0.00" timeLoss="40.92" rerouteNo="0" devices="tripinfo_left_60 fcd_left_60" vType="typeWE@left_60" speedFactor="0.88" vaporized=""/>
    <tripinfo id="up_69" depart="332.00" departLane="53o_0" departPos="7.10" departSpeed="0.00" departDelay="0.00" arrival="434.00" arrivalLane="upup_0" arrivalPos="160.86" arrivalSpeed="16.48" duration="102.00" routeLength="718.35" waitingTime="31.00" waitingCount="1" stopTime="0.00" timeLoss="58.20" rerouteNo="0" devices="tripinfo_up_69 fcd_up_69" vType="typeNS@up_69" speedFactor="1.00" vaporized=""/>
    <tripinfo id="right_58" depart="285.00" departLane="51o_0" departPos="5.10" departSpeed="0.00" departDelay="2.00" arrival="436.00" arrivalLane="52i_0" arrivalPos="10.00" arrivalSpeed="11.95" duration="151.00" routeLength="1015.10" waitingTime="0.00" waitingCount="0" stopTime="0.00" timeLoss="63.38" rerouteNo="0" devices="tripinfo_right_58 fcd_right_58" vType="typeWE@right_58" speedFactor="1.00" vaporized=""/>
    <tripinfo id="left_66" depart="314.00" departLane="52o_0" departPos="5.10" departSpeed="0.00" departDelay="0.00" arrival="441.00" arrivalLane="51i_0" arrivalPos="10.00" arrivalSpeed="11.65" duration="127.00" routeLength="1015.10" waitingTime="0.00" waitingCount="0" stopTime="0.00" timeLoss="32.04" rerouteNo="0" devices="tripinfo_left_66 fcd_left_66" vType="typeWE@left_66" speedFactor="0.88" vaporized=""/>