<?xml version="1.0" encoding="UTF-8"?>

<!-- generated on понедельник, 15 июня 2020 г. 16:06:19 by Eclipse SUMO GUI Version 1.5.0
<configuration xmlns:xsi="http://www.w3.org/2001/XMLSchema-instance" xsi:noNamespaceSchemaLocation="http://sumo.dlr.de/xsd/sumoConfiguration.xsd">

    <input>
        <net-file value="data/cross.net.xml"/>
        <route-files value="data/cross.rou.xml"/>
    </input>

    <output>
        <tripinfo-output value="tripinfo.xml"/>
    </output>

    <time>
        <begin value="0"/>
    </time>

    <processing>
        <ignore-route-errors value="true"/>
        <collision.mingap-factor value="0"/>
    </processing>

    <report>
        <verbose value="true"/>
        <no-warnings value="true"/>
        <no-step-log value="true"/>
    </report>

    <traci_server>
        <remote-port value="61725"/>
    </traci_server>

</configuration>
-->

<tripinfos xmlns:xsi="http://www.w3.org/2001/XMLSchema-instance" xsi:noNamespaceSchemaLocation="http://sumo.dlr.de/xsd/tripinfo_file.xsd">
    <tripinfo id="new_0" depart="1.00" departLane="top1i_0" departPos="5.10" departSpeed="0.00" departDelay="0.00" arrival="71.00" arrivalLane="top2o_0" arrivalPos="489.40" arrivalSpeed="19.07" duration="70.00" routeLength="988.37" waitingTime="0.00" waitingCount="0" stopTime="0.00" timeLoss="7.19" rerouteNo="0" devices="tripinfo_new_0" vType="typeWE@new_0" speedFactor="1.00" vaporized=""/>
    <tripinfo id="down_2" depart="9.00" departLane="updown_0" departPos="7.10" departSpeed="0.00" departDelay="0.00" arrival="112.00" arrivalLane="53i_0" arrivalPos="10.00" arrivalSpeed="11.06" duration="103.00" routeLength="718.34" waitingTime="13.00" waitingCount="1" stopTime="0.00" timeLoss="40.27" rerouteNo="0" devices="tripinfo_down_2" vType="typeNS@down_2" speedFactor="1.00" vaporized=""/>
    <tripinfo id="new_1" depart="4.00" departLane="top1i_0" departPos="5.10" departSpeed="0.00" departDelay="2.00" arrival="123.00" arrivalLane="top2o_0" arrivalPos="489.40" arrivalSpeed="19.20" duration="119.00" routeLength="988.37" waitingTime="39.00" waitingCount="1" stopTime="0.00" timeLoss="56.60" rerouteNo="0" devices="tripinfo_new_1" vType="typeWE@new_1" speedFactor="1.00" vaporized=""/>
    <tripinfo id="new_3" depart="12.00" departLane="top1i_0" departPos="5.10" departSpeed="0.00" departDelay="0.00" arrival="130.00" arrivalLane="top2o_0" arrivalPos="489.40" arrivalSpeed="19.64" duration="118.00" routeLength="988.37" waitingTime="5.00" waitingCount="2" stopTime="0.00" timeLoss="55.17" rerouteNo="0" devices="tripinfo_new_3" vType="typeWE@new_3" speedFactor="1.00" vaporized=""/>
    <tripinfo id="down_11" depart="52.00" departLane="updown_0" departPos="7.10" departSpeed="0.00" departDelay="0.00" arrival="131.00" arrivalLane="53i_0" arrivalPos="10.00" arrivalSpeed="10.91" duration="79.00" routeLength="718.34" waitingTime="0.00" waitingCount="0" stopTime="0.00" timeLoss="16.31" rerouteNo="0" devices="tripinfo_down_11" vType="typeNS@down_11" speedFactor="1.00" vaporized=""/>
    <tripinfo id="new_5" depart="17.00" departLane="top1i_0" departPos="5.10" departSpeed="0.00" departDelay="0.00" arrival="136.00" arrivalLane="top2o_0" arrivalPos="489.40" arrivalSpeed="19.02" duration="119.00" routeLength="988.37" waitingTime="0.00" waitingCount="0" stopTime="0.00" timeLoss="56.77" rerouteNo="0" devices="tripinfo_new_5" vType="typeWE@new_5" speedFactor="1.00" vaporized=""/>
    <tripinfo id="new_14" depart="68.00" departLane="top1i_0" departPos="5.10" departSpeed="0.00" departDelay="0.00" arrival="143.00" arrivalLane="top2o_0" arrivalPos="489.40" arrivalSpeed="19.11" duration="75.00" routeLength="988.37" waitingTime="0.00" waitingCount="0" stopTime="0.00" timeLoss="12.44" rerouteNo="0" devices="tripinfo_new_14" vType="typeWE@new_14" speedFactor="1.00" vaporized=""/>
    <tripinfo id="right_6" depart="18.00" departLane="51o_0" departPos="5.10" departSpeed="0.00" departDelay="0.00" arrival="147.00" arrivalLane="52i_0" arrivalPos="10.00" arrivalSpeed="12.33" duration="129.00" routeLength="1015.10" waitingTime="28.00" waitingCount="1" stopTime="0.00" timeLoss="41.70" rerouteNo="0" devices="tripinfo_right_6" vType="typeWE@right_6" speedFactor="1.00" vaporized=""/>
    <tripinfo id="up_10" depart="48.00" departLane="53o_0" departPos="7.10" departSpeed="0.00" departDelay="0.00" arrival="159.00" arrivalLane="upup_0" arrivalPos="160.86" arrivalSpeed="16.55" duration="111.00" routeLength="718.35" waitingTime="40.00" waitingCount="1" stopTime="0.00" timeLoss="67.87" rerouteNo="0" devices="tripinfo_up_10" vType="typeNS@up_10" speedFactor="1.00" vaporized=""/>
    <tripinfo id="right_13" depart="61.00" departLane="51o_0" departPos="5.10" departSpeed="0.00" departDelay="0.00" arrival="160.00" arrivalLane="52i_0" arrivalPos="10.00" arrivalSpeed="13.88" duration="99.00" routeLength="1015.10" waitingTime="0.00" waitingCount="0" stopTime="0.00" timeLoss="11.18" rerouteNo="0" devices="tripinfo_right_13" vType="typeWE@right_13" speedFactor="1.00" vaporized=""/>
    <tripinfo id="left_7" depart="38.00" departLane="52o_0" departPos="5.10" departSpeed="0.00" departDelay="0.00" arrival="162.00" arrivalLane="51i_0" arrivalPos="10.00" arrivalSpeed="10.91" duration="124.00" routeLength="1015.10" waitingTime="11.00" waitingCount="1" stopTime="0.00" timeLoss="28.07" rerouteNo="0" devices="tripinfo_left_7" vType="typeWE@left_7" speedFactor="0.88" vaporized=""/>
    <tripinfo id="left_8" depart="41.00" departLane="52o_0" departPos="5.10" departSpeed="0.00" departDelay="0.00" arrival="171.00" arrivalLane="51i_0" arrivalPos="10.00" arrivalSpeed="11.08" duration="130.00" routeLength="1015.10" waitingTime="0.00" waitingCount="0" stopTime="0.00" timeLoss="35.65" rerouteNo="0" devices="tripinfo_left_8" vType="typeWE@left_8" speedFactor="0.88" vaporized=""/>
    <tripinfo id="right_17" depart="72.00" departLane="51o_0" departPos="5.10" departSpeed="0.00" departDelay="0.00" arrival="171.00" arrivalLane="52i_0" arrivalPos="10.00" arrivalSpeed="11.23" duration="99.00" routeLength="1015.10" waitingTime="0.00" waitingCount="0" stopTime="0.00" timeLoss="11.77" rerouteNo="0" devices="tripinfo_right_17" vType="typeWE@right_17" speedFactor="1.00" vaporized=""/>
    <tripinfo id="left_9" depart="43.00" departLane="52o_0" departPos="5.10" departSpeed="0.00" departDelay="1.00" arrival="180.00" arrivalLane="51i_0" arrivalPos="10.00" arrivalSpeed="11.37" duration="137.00" routeLength="1015.10" waitingTime="0.00" waitingCount="0" stopTime="0.00" timeLoss="40.69" rerouteNo="0" devices="tripinfo_left_9" vType="typeWE@left_9" speedFactor="0.88" vaporized=""/>
    <tripinfo id="right_18" depart="75.00" departLane="51o_0" departPos="5.10" departSpeed="0.00" departDelay="1.00" arrival="182.00" arrivalLane="52i_0" arrivalPos="10.00" arrivalSpeed="11.64" duration="107.00" routeLength="1015.10" waitingTime="0.00" waitingCount="0" stopTime="0.00" timeLoss="19.53" rerouteNo="0" devices="tripinfo_right_18" vType="typeWE@right_18" speedFactor="1.00" vaporized=""/>
    <tripinfo id="left_15" depart="70.00" departLane="52o_0" departPos="5.10" departSpeed="0.00" departDelay="0.00" arrival="189.00" arrivalLane="51i_0" arrivalPos="10.00" arrivalSpeed="10.61" duration="119.00" routeLength="1015.10" waitingTime="0.00" waitingCount="0" stopTime="0.00" timeLoss="24.88" rerouteNo="0" devices="tripinfo_left_15" vType="typeWE@left_15" speedFactor="0.88" vaporized=""/>
    <tripinfo id="new3_4" depart="14.00" departLane="top2i_0" departPos="5.10" departSpeed="0.00" departDelay="0.00" arrival="191.00" arrivalLane="53i_0" arrivalPos="10.00" arrivalSpeed="13.27" duration="177.00" routeLength="1048.69" waitingTime="73.00" waitingCount="3" stopTime="0.00" timeLoss="96.86" rerouteNo="0" devices="tripinfo_new3_4" vType="typeWE@new3_4" speedFactor="1.00" vaporized=""/>
    <tripinfo id="left_19" depart="75.00" departLane="52o_0" departPos="5.10" departSpeed="0.00" departDelay="0.00" arrival="198.00" arrivalLane="51i_0" arrivalPos="10.00" arrivalSpeed="10.76" duration="123.00" routeLength="1015.10" waitingTime="0.00" waitingCount="0" stopTime="0.00" timeLoss="33.56" rerouteNo="0" devices="tripinfo_left_19" vType="typeWE@left_19" speedFactor="0.88" vaporized=""/>
    <tripinfo id="new3_12" depart="56.00" departLane="top2i_0" departPos="5.10" departSpeed="0.00" departDelay="0.00" arrival="199.00" arrivalLane="53i_0" arrivalPos="10.00" arrivalSpeed="11.79" duration="143.00" routeLength="1048.69" waitingTime="0.00" waitingCount="0" stopTime="0.00" timeLoss="63.20" rerouteNo="0" devices="tripinfo_new3_12" vType="typeWE@new3_12" speedFactor="1.00" vaporized=""/>
    <tripinfo id="down_16" depart="71.00" departLane="updown_0" departPos="7.10" departSpeed="0.00" departDelay="0.00" arrival="208.00" arrivalLane="53i_0" arrivalPos="10.00" arrivalSpeed="11.98" duration="137.00" routeLength="718.34" waitingTime="39.00" waitingCount="1" stopTime="0.00" timeLoss="73.00" rerouteNo="0" devices="tripinfo_down_16" vType="typeNS@down_16" speedFactor="1.00" vaporized=""/>
</tripinfos>
