<?xml version="1.0" encoding="UTF-8"?>

<!-- generated on четверг, 11 июня 2020 г. 12:06:16 by Eclipse SUMO GUI Version 1.5.0
<configuration xmlns:xsi="http://www.w3.org/2001/XMLSchema-instance" xsi:noNamespaceSchemaLocation="http://sumo.dlr.de/xsd/sumoConfiguration.xsd">

    <input>
        <net-file value="data/cross.net.xml"/>
        <route-files value="data/cross.rou.xml"/>
        <additional-files value="data/cross.det.xml"/>
    </input>

    <output>
        <tripinfo-output value="tripinfo.xml"/>
    </output>

    <time>
        <begin value="0"/>
    </time>

    <report>
        <verbose value="true"/>
        <no-step-log value="true"/>
    </report>

    <traci_server>
        <remote-port value="51464"/>
    </traci_server>

</configuration>
-->

<tripinfos xmlns:xsi="http://www.w3.org/2001/XMLSchema-instance" xsi:noNamespaceSchemaLocation="http://sumo.dlr.de/xsd/tripinfo_file.xsd">
    <tripinfo id="left_8" depart="33.00" departLane="52o_0" departPos="5.10" departSpeed="0.00" departDelay="0.00" arrival="74.00" arrivalLane="51i_0" arrivalPos="10.00" arrivalSpeed="11.99" duration="41.00" routeLength="1005.60" waitingTime="1.00" waitingCount="1" stopTime="0.00" timeLoss="8.48" rerouteNo="0" devices="tripinfo_left_8" vType="typeWE@left_8" speedFactor="0.94" vaporized=""/>
    <tripinfo id="left_9" depart="41.00" departLane="52o_0" departPos="5.10" departSpeed="0.00" departDelay="0.00" arrival="75.00" arrivalLane="51i_0" arrivalPos="10.00" arrivalSpeed="7.81" duration="34.00" routeLength="1005.60" waitingTime="1.00" waitingCount="1" stopTime="0.00" timeLoss="7.10" rerouteNo="0" devices="tripinfo_left_9" vType="typeWE@left_9" speedFactor="0.86" vaporized=""/>
    <tripinfo id="left_7" depart="31.00" departLane="52o_0" departPos="5.10" departSpeed="0.00" departDelay="0.00" arrival="77.00" arrivalLane="51i_0" arrivalPos="10.00" arrivalSpeed="11.47" duration="46.00" routeLength="1005.60" waitingTime="1.00" waitingCount="1" stopTime="0.00" timeLoss="8.03" rerouteNo="0" devices="tripinfo_left_7" vType="typeWE@left_7" speedFactor="0.89" vaporized=""/>
    <tripinfo id="left_0" depart="0.00" departLane="52o_0" departPos="5.10" departSpeed="0.00" departDelay="0.00" arrival="79.00" arrivalLane="51i_0" arrivalPos="10.00" arrivalSpeed="14.38" duration="79.00" routeLength="1015.10" waitingTime="0.00" waitingCount="0" stopTime="0.00" timeLoss="10.92" rerouteNo="0" devices="tripinfo_left_0" vType="typeWE@left_0" speedFactor="1.06" vaporized=""/>
    <tripinfo id="left_11" depart="45.00" departLane="52o_0" departPos="5.10" departSpeed="0.00" departDelay="0.00" arrival="120.00" arrivalLane="51i_0" arrivalPos="10.00" arrivalSpeed="12.50" duration="75.00" routeLength="1005.60" waitingTime="1.00" waitingCount="1" stopTime="0.00" timeLoss="11.89" rerouteNo="0" devices="tripinfo_left_11" vType="typeWE@left_11" speedFactor="1.03" vaporized=""/>
    <tripinfo id="right_2" depart="3.00" departLane="51o_0" departPos="5.10" departSpeed="0.00" departDelay="0.00" arrival="125.00" arrivalLane="52i_0" arrivalPos="10.00" arrivalSpeed="12.76" duration="122.00" routeLength="1015.10" waitingTime="36.00" waitingCount="1" stopTime="0.00" timeLoss="50.55" rerouteNo="0" devices="tripinfo_right_2" vType="typeWE@right_2" speedFactor="1.01" vaporized=""/>
    <tripinfo id="right_3" depart="6.00" departLane="51o_0" departPos="5.10" departSpeed="0.00" departDelay="2.00" arrival="126.00" arrivalLane="52i_0" arrivalPos="10.00" arrivalSpeed="12.66" duration="120.00" routeLength="1015.10" waitingTime="35.00" waitingCount="1" stopTime="0.00" timeLoss="53.83" rerouteNo="0" devices="tripinfo_right_3" vType="typeWE@right_3" speedFactor="1.08" vaporized=""/>
    <tripinfo id="left_1" depart="2.00" departLane="52o_0" departPos="5.10" departSpeed="0.00" departDelay="0.00" arrival="129.00" arrivalLane="51i_0" arrivalPos="10.00" arrivalSpeed="11.70" duration="127.00" routeLength="1015.10" waitingTime="35.00" waitingCount="1" stopTime="0.00" timeLoss="50.24" rerouteNo="0" devices="tripinfo_left_1" vType="typeWE@left_1" speedFactor="0.94" vaporized=""/>
    <tripinfo id="left_4" depart="6.00" departLane="52o_0" departPos="5.10" departSpeed="0.00" departDelay="0.00" arrival="131.00" arrivalLane="51i_0" arrivalPos="10.00" arrivalSpeed="13.47" duration="125.00" routeLength="1015.10" waitingTime="34.00" waitingCount="1" stopTime="0.00" timeLoss="55.00" rerouteNo="0" devices="tripinfo_left_4" vType="typeWE@left_4" speedFactor="1.03" vaporized=""/>
    <tripinfo id="left_6" depart="22.00" departLane="52o_0" departPos="5.10" departSpeed="0.00" departDelay="0.00" arrival="135.00" arrivalLane="51i_0" arrivalPos="10.00" arrivalSpeed="13.74" duration="113.00" routeLength="1015.10" waitingTime="25.00" waitingCount="1" stopTime="0.00" timeLoss="43.87" rerouteNo="0" devices="tripinfo_left_6" vType="typeWE@left_6" speedFactor="1.05" vaporized=""/>
    <tripinfo id="left_12" depart="53.00" departLane="52o_0" departPos="5.10" departSpeed="0.00" departDelay="0.00" arrival="138.00" arrivalLane="51i_0" arrivalPos="10.00" arrivalSpeed="13.96" duration="85.00" routeLength="1015.10" waitingTime="0.00" waitingCount="0" stopTime="0.00" timeLoss="16.49" rerouteNo="0" devices="tripinfo_left_12" vType="typeWE@left_12" speedFactor="1.05" vaporized=""/>
    <tripinfo id="right_5" depart="9.00" departLane="51o_0" departPos="5.10" departSpeed="0.00" departDelay="0.00" arrival="144.00" arrivalLane="52i_0" arrivalPos="10.00" arrivalSpeed="10.01" duration="135.00" routeLength="1015.10" waitingTime="32.00" waitingCount="1" stopTime="0.00" timeLoss="48.36" rerouteNo="0" devices="tripinfo_right_5" vType="typeWE@right_5" speedFactor="0.83" vaporized=""/>
    <tripinfo id="right_10" depart="42.00" departLane="51o_0" departPos="5.10" departSpeed="0.00" departDelay="0.00" arrival="146.00" arrivalLane="52i_0" arrivalPos="10.00" arrivalSpeed="13.97" duration="104.00" routeLength="1015.10" waitingTime="6.00" waitingCount="1" stopTime="0.00" timeLoss="37.75" rerouteNo="0" devices="tripinfo_right_10" vType="typeWE@right_10" speedFactor="1.09" vaporized=""/>
    <tripinfo id="right_13" depart="55.00" departLane="51o_0" departPos="5.10" departSpeed="0.00" departDelay="0.00" arrival="148.00" arrivalLane="52i_0" arrivalPos="10.00" arrivalSpeed="14.90" duration="93.00" routeLength="1015.10" waitingTime="0.00" waitingCount="0" stopTime="0.00" timeLoss="28.59" rerouteNo="0" devices="tripinfo_right_13" vType="typeWE@right_13" speedFactor="1.12" vaporized=""/>
    <tripinfo id="right_14" depart="61.00" departLane="51o_0" departPos="5.10" departSpeed="0.00" departDelay="0.00" arrival="150.00" arrivalLane="52i_0" arrivalPos="10.00" arrivalSpeed="11.80" duration="89.00" routeLength="1015.10" waitingTime="0.00" waitingCount="0" stopTime="0.00" timeLoss="16.52" rerouteNo="0" devices="tripinfo_right_14" vType="typeWE@right_14" speedFactor="0.99" vaporized=""/>
    <tripinfo id="right_15" depart="69.00" departLane="51o_0" departPos="5.10" departSpeed="0.00" departDelay="0.00" arrival="157.00" arrivalLane="52i_0" arrivalPos="10.00" arrivalSpeed="11.45" duration="88.00" routeLength="1015.10" waitingTime="0.00" waitingCount="0" stopTime="0.00" timeLoss="10.83" rerouteNo="0" devices="tripinfo_right_15" vType="typeWE@right_15" speedFactor="0.93" vaporized=""/>
    <tripinfo id="down_18" depart="89.00" departLane="54o_0" departPos="7.10" departSpeed="0.00" departDelay="0.00" arrival="178.00" arrivalLane="53i_0" arrivalPos="10.00" arrivalSpeed="10.98" duration="89.00" routeLength="1013.10" waitingTime="0.00" waitingCount="0" stopTime="0.00" timeLoss="12.40" rerouteNo="0" devices="tripinfo_down_18" vType="typeNS@down_18" speedFactor="0.94" vaporized=""/>
    <tripinfo id="down_19" depart="96.00" departLane="54o_0" departPos="7.10" departSpeed="0.00" departDelay="0.00" arrival="180.00" arrivalLane="53i_0" arrivalPos="10.00" arrivalSpeed="12.20" duration="84.00" routeLength="1013.10" waitingTime="0.00" waitingCount="0" stopTime="0.00" timeLoss="22.05" rerouteNo="0" devices="tripinfo_down_19" vType="typeNS@down_19" speedFactor="1.16" vaporized=""/>
    <tripinfo id="left_38" depart="172.00" departLane="52o_0" departPos="5.10" departSpeed="0.00" departDelay="0.00" arrival="200.00" arrivalLane="51i_0" arrivalPos="10.00" arrivalSpeed="13.21" duration="28.00" routeLength="1005.60" waitingTime="1.00" waitingCount="1" stopTime="0.00" timeLoss="7.08" rerouteNo="0" devices="tripinfo_left_38" vType="typeWE@left_38" speedFactor="1.10" vaporized=""/>
    <tripinfo id="left_17" depart="85.00" departLane="52o_0" departPos="5.10" departSpeed="0.00" departDelay="0.00" arrival="202.00" arrivalLane="51i_0" arrivalPos="10.00" arrivalSpeed="11.01" duration="117.00" routeLength="1015.10" waitingTime="27.00" waitingCount="1" stopTime="0.00" timeLoss="41.18" rerouteNo="0" devices="tripinfo_left_17" vType="typeWE@left_17" speedFactor="0.94" vaporized=""/>
    <tripinfo id="left_21" depart="99.00" departLane="52o_0" departPos="5.10" departSpeed="0.00" departDelay="0.00" arrival="205.00" arrivalLane="51i_0" arrivalPos="10.00" arrivalSpeed="13.39" duration="106.00" routeLength="1015.10" waitingTime="18.00" waitingCount="1" stopTime="0.00" timeLoss="34.69" rerouteNo="0" devices="tripinfo_left_21" vType="typeWE@left_21" speedFactor="1.01" vaporized=""/>
    <tripinfo id="right_16" depart="84.00" departLane="51o_0" departPos="5.10" departSpeed="0.00" departDelay="0.00" arrival="206.00" arrivalLane="52i_0" arrivalPos="10.00" arrivalSpeed="11.49" duration="122.00" routeLength="1015.10" waitingTime="25.00" waitingCount="1" stopTime="0.00" timeLoss="40.61" rerouteNo="0" devices="tripinfo_right_16" vType="typeWE@right_16" speedFactor="0.88" vaporized=""/>
    <tripinfo id="right_20" depart="99.00" departLane="51o_0" departPos="5.10" departSpeed="0.00" departDelay="0.00" arrival="208.00" arrivalLane="52i_0" arrivalPos="10.00" arrivalSpeed="13.25" duration="109.00" routeLength="1015.10" waitingTime="19.00" waitingCount="1" stopTime="0.00" timeLoss="38.50" rerouteNo="0" devices="tripinfo_right_20" vType="typeWE@right_20" speedFactor="1.02" vaporized=""/>
    <tripinfo id="left_37" depart="169.00" departLane="52o_0" departPos="5.10" departSpeed="0.00" departDelay="0.00" arrival="208.00" arrivalLane="51i_0" arrivalPos="10.00" arrivalSpeed="13.55" duration="39.00" routeLength="1005.60" waitingTime="1.00" waitingCount="1" stopTime="0.00" timeLoss="9.00" rerouteNo="0" devices="tripinfo_left_37" vType="typeWE@left_37" speedFactor="1.18" vaporized=""/>
    <tripinfo id="right_22" depart="108.00" departLane="51o_0" departPos="5.10" departSpeed="0.00" departDelay="0.00" arrival="210.00" arrivalLane="52i_0" arrivalPos="10.00" arrivalSpeed="11.65" duration="102.00" routeLength="1015.10" waitingTime="10.00" waitingCount="1" stopTime="0.00" timeLoss="28.48" rerouteNo="0" devices="tripinfo_right_22" vType="typeWE@right_22" speedFactor="0.98" vaporized=""/>
    <tripinfo id="left_34" depart="164.00" departLane="52o_0" departPos="5.10" departSpeed="0.00" departDelay="0.00" arrival="212.00" arrivalLane="51i_0" arrivalPos="10.00" arrivalSpeed="12.92" duration="48.00" routeLength="1005.60" waitingTime="1.00" waitingCount="1" stopTime="0.00" timeLoss="8.03" rerouteNo="0" devices="tripinfo_left_34" vType="typeWE@left_34" speedFactor="0.99" vaporized=""/>
    <tripinfo id="right_23" depart="114.00" departLane="51o_0" departPos="5.10" departSpeed="0.00" departDelay="0.00" arrival="219.00" arrivalLane="52i_0" arrivalPos="10.00" arrivalSpeed="11.28" duration="105.00" routeLength="1015.10" waitingTime="5.00" waitingCount="1" stopTime="0.00" timeLoss="24.24" rerouteNo="0" devices="tripinfo_right_23" vType="typeWE@right_23" speedFactor="0.89" vaporized=""/>
    <tripinfo id="left_26" depart="131.00" departLane="52o_0" departPos="5.10" departSpeed="0.00" departDelay="0.00" arrival="219.00" arrivalLane="51i_0" arrivalPos="10.00" arrivalSpeed="12.58" duration="88.00" routeLength="1015.10" waitingTime="0.00" waitingCount="0" stopTime="0.00" timeLoss="9.24" rerouteNo="0" devices="tripinfo_left_26" vType="typeWE@left_26" speedFactor="0.92" vaporized=""/>
    <tripinfo id="left_27" depart="135.00" departLane="52o_0" departPos="5.10" departSpeed="0.00" departDelay="0.00" arrival="222.00" arrivalLane="51i_0" arrivalPos="10.00" arrivalSpeed="11.85" duration="87.00" routeLength="1015.10" waitingTime="0.00" waitingCount="0" stopTime="0.00" timeLoss="11.45" rerouteNo="0" devices="tripinfo_left_27" vType="typeWE@left_27" speedFactor="0.95" vaporized=""/>
    <tripinfo id="left_28" depart="138.00" departLane="52o_0" departPos="5.10" departSpeed="0.00" departDelay="0.00" arrival="224.00" arrivalLane="51i_0" arrivalPos="10.00" arrivalSpeed="12.65" duration="86.00" routeLength="1015.10" waitingTime="1.00" waitingCount="1" stopTime="0.00" timeLoss="22.21" rerouteNo="0" devices="tripinfo_left_28" vType="typeWE@left_28" speedFactor="1.13" vaporized=""/>
    <tripinfo id="right_25" depart="125.00" departLane="51o_0" departPos="5.10" departSpeed="0.00" departDelay="0.00" arrival="225.00" arrivalLane="52i_0" arrivalPos="10.00" arrivalSpeed="11.85" duration="100.00" routeLength="1015.10" waitingTime="0.00" waitingCount="0" stopTime="0.00" timeLoss="17.88" rerouteNo="0" devices="tripinfo_right_25" vType="typeWE@right_25" speedFactor="0.87" vaporized=""/>
    <tripinfo id="right_30" depart="145.00" departLane="51o_0" departPos="5.10" departSpeed="0.00" departDelay="0.00" arrival="227.00" arrivalLane="52i_0" arrivalPos="10.00" arrivalSpeed="13.07" duration="82.00" routeLength="1015.10" waitingTime="0.00" waitingCount="0" stopTime="0.00" timeLoss="21.21" rerouteNo="0" devices="tripinfo_right_30" vType="typeWE@right_30" speedFactor="1.18" vaporized=""/>
    <tripinfo id="left_43" depart="194.00" departLane="52o_0" departPos="5.10" departSpeed="0.00" departDelay="0.00" arrival="229.00" arrivalLane="51i_0" arrivalPos="10.00" arrivalSpeed="12.40" duration="35.00" routeLength="1005.60" waitingTime="1.00" waitingCount="1" stopTime="0.00" timeLoss="7.21" rerouteNo="0" devices="tripinfo_left_43" vType="typeWE@left_43" speedFactor="1.04" vaporized=""/>
    <tripinfo id="left_29" depart="142.00" departLane="52o_0" departPos="5.10" departSpeed="0.00" departDelay="0.00" arrival="232.00" arrivalLane="51i_0" arrivalPos="10.00" arrivalSpeed="11.28" duration="90.00" routeLength="1015.10" waitingTime="0.00" waitingCount="0" stopTime="0.00" timeLoss="12.72" rerouteNo="0" devices="tripinfo_left_29" vType="typeWE@left_29" speedFactor="0.93" vaporized=""/>
</tripinfos>
