<?xml version="1.0" encoding="UTF-8"?>

<!-- generated on суббота, 13 июня 2020 г. 17:47:54 by Eclipse SUMO GUI Version 1.5.0
<configuration xmlns:xsi="http://www.w3.org/2001/XMLSchema-instance" xsi:noNamespaceSchemaLocation="http://sumo.dlr.de/xsd/sumoConfiguration.xsd">

    <input>
        <net-file value="data/models/YarCircle/osm.net.xml"/>
        <route-files value="data/models/YarCircle/osm.passenger.trips.xml,data/models/YarCircle/osm.bus.trips.xml"/>
        <additional-files value="data/averagesW.xml"/>
    </input>

    <output>
        <tripinfo-output value="tripinfo.xml"/>
    </output>

    <processing>
        <ignore-route-errors value="true"/>
        <collision.mingap-factor value="0"/>
    </processing>

    <routing>
        <device.rerouting.adaptation-steps value="180"/>
    </routing>

    <report>
        <verbose value="true"/>
        <no-warnings value="true"/>
        <duration-log.statistics value="true"/>
        <no-step-log value="true"/>
    </report>

    <traci_server>
        <remote-port value="63919"/>
    </traci_server>

    <gui_only>
        <gui-settings-file value="data/models/YarCircle/osm.view.xml"/>
    </gui_only>

</configuration>
-->

<tripinfos xmlns:xsi="http://www.w3.org/2001/XMLSchema-instance" xsi:noNamespaceSchemaLocation="http://sumo.dlr.de/xsd/tripinfo_file.xsd">
    <tripinfo id="veh1" depart="4.00" departLane="585506249#0_0" departPos="5.10" departSpeed="26.07" departDelay="-0.52" arrival="47.00" arrivalLane="665146714#4_0" arrivalPos="421.36" arrivalSpeed="21.70" duration="43.00" routeLength="646.87" waitingTime="0.00" waitingCount="0" stopTime="0.00" timeLoss="12.19" rerouteNo="1" devices="tripinfo_veh1 routing_veh1" vType="veh_passenger@veh1" speedFactor="1.00" vaporized=""/>
    <tripinfo id="veh0" depart="0.00" departLane="-99952877_0" departPos="4.06" departSpeed="0.00" departDelay="0.00" arrival="88.00" arrivalLane="127497306#3_0" arrivalPos="463.62" arrivalSpeed="27.77" duration="88.00" routeLength="596.21" waitingTime="37.00" waitingCount="1" stopTime="0.00" timeLoss="62.02" rerouteNo="1" devices="tripinfo_veh0 routing_veh0" vType="veh_passenger@veh0" speedFactor="1.00" vaporized=""/>
    <tripinfo id="veh2" depart="9.00" departLane="-23559783_1" departPos="5.10" departSpeed="28.07" departDelay="-0.04" arrival="89.00" arrivalLane="127497306#3_0" arrivalPos="463.62" arrivalSpeed="26.66" duration="80.00" routeLength="791.24" waitingTime="17.00" waitingCount="1" stopTime="0.00" timeLoss="45.74" rerouteNo="1" devices="tripinfo_veh2 routing_veh2" vType="veh_passenger@veh2" speedFactor="1.00" vaporized=""/>
    <tripinfo id="veh7" depart="31.00" departLane="-665146715_0" departPos="5.10" departSpeed="12.31" departDelay="-0.64" arrival="91.00" arrivalLane="127497306#3_0" arrivalPos="463.62" arrivalSpeed="27.48" duration="60.00" routeLength="629.52" waitingTime="5.00" waitingCount="1" stopTime="0.00" timeLoss="31.87" rerouteNo="1" devices="tripinfo_veh7 routing_veh7" vType="veh_passenger@veh7" speedFactor="1.00" vaporized=""/>
    <tripinfo id="veh3" depart="13.00" departLane="665146708_3" departPos="5.10" departSpeed="0.00" departDelay="-0.56" arrival="94.00" arrivalLane="665146714#4_0" arrivalPos="421.36" arrivalSpeed="21.73" duration="81.00" routeLength="740.12" waitingTime="9.00" waitingCount="1" stopTime="0.00" timeLoss="43.13" rerouteNo="1" devices="tripinfo_veh3 routing_veh3" vType="veh_passenger@veh3" speedFactor="1.00" vaporized=""/>
    <tripinfo id="veh5" depart="22.00" departLane="665146708_3" departPos="5.10" departSpeed="0.00" departDelay="-0.60" arrival="98.00" arrivalLane="665146714#4_0" arrivalPos="421.36" arrivalSpeed="21.10" duration="76.00" routeLength="740.12" waitingTime="4.00" waitingCount="1" stopTime="0.00" timeLoss="37.30" rerouteNo="1" devices="tripinfo_veh5 routing_veh5" vType="veh_passenger@veh5" speedFactor="1.00" vaporized=""/>
    <tripinfo id="veh6" depart="27.00" departLane="585506249#0_1" departPos="5.10" departSpeed="29.05" departDelay="-0.12" arrival="114.00" arrivalLane="-77856541#0_0" arrivalPos="105.43" arrivalSpeed="20.89" duration="87.00" routeLength="352.98" waitingTime="43.00" waitingCount="1" stopTime="0.00" timeLoss="69.32" rerouteNo="1" devices="tripinfo_veh6 routing_veh6" vType="veh_passenger@veh6" speedFactor="1.00" vaporized=""/>
    <tripinfo id="veh12" depart="54.00" departLane="45014977_0" departPos="0.20" departSpeed="0.00" departDelay="-0.25" arrival="129.00" arrivalLane="665146714#4_0" arrivalPos="421.36" arrivalSpeed="22.10" duration="75.00" routeLength="763.12" waitingTime="0.00" waitingCount="0" stopTime="0.00" timeLoss="36.41" rerouteNo="1" devices="tripinfo_veh12 routing_veh12" vType="veh_passenger@veh12" speedFactor="1.00" vaporized=""/>
    <tripinfo id="veh24" depart="109.00" departLane="221348491#0_0" departPos="0.10" departSpeed="0.00" departDelay="0.51" arrival="145.00" arrivalLane="665146714#4_0" arrivalPos="421.36" arrivalSpeed="22.14" duration="36.00" routeLength="522.62" waitingTime="0.00" waitingCount="0" stopTime="0.00" timeLoss="11.38" rerouteNo="1" devices="tripinfo_veh24 routing_veh24" vType="veh_passenger@veh24" speedFactor="1.00" vaporized=""/>
    <tripinfo id="veh11" depart="49.00" departLane="-665146714#5_0" departPos="5.10" departSpeed="22.80" departDelay="-0.72" arrival="155.00" arrivalLane="23559783_1" arrivalPos="74.92" arrivalSpeed="18.62" duration="106.00" routeLength="846.50" waitingTime="33.00" waitingCount="2" stopTime="0.00" timeLoss="65.61" rerouteNo="1" devices="tripinfo_veh11 routing_veh11" vType="veh_passenger@veh11" speedFactor="1.00" vaporized=""/>
    <tripinfo id="bus0" depart="0.00" departLane="-665146714#5_0" departPos="12.10" departSpeed="22.22" departDelay="0.00" arrival="185.00" arrivalLane="99952620#1_0" arrivalPos="63.37" arrivalSpeed="14.04" duration="185.00" routeLength="841.19" waitingTime="94.00" waitingCount="2" stopTime="0.00" timeLoss="130.02" rerouteNo="1" devices="tripinfo_bus0 routing_bus0" vType="bus_bus@bus0" speedFactor="1.00" vaporized=""/>
    <tripinfo id="veh14" depart="65.00" departLane="665146713_0" departPos="5.10" departSpeed="0.00" departDelay="1.71" arrival="215.00" arrivalLane="127497306#3_2" arrivalPos="463.62" arrivalSpeed="27.76" duration="150.00" routeLength="686.52" waitingTime="79.00" waitingCount="2" stopTime="0.00" timeLoss="119.00" rerouteNo="1" devices="tripinfo_veh14 routing_veh14" vType="veh_passenger@veh14" speedFactor="1.00" vaporized=""/>
    <tripinfo id="veh21" depart="94.00" departLane="127497306#0_1" departPos="5.10" departSpeed="0.00" departDelay="-0.93" arrival="215.00" arrivalLane="127497306#3_1" arrivalPos="463.62" arrivalSpeed="26.57" duration="121.00" routeLength="511.63" waitingTime="82.00" waitingCount="1" stopTime="0.00" timeLoss="101.10" rerouteNo="1" devices="tripinfo_veh21 routing_veh21" vType="veh_passenger@veh21" speedFactor="1.00" vaporized=""/>
    <tripinfo id="veh16" depart="72.00" departLane="45014977_0" departPos="0.20" departSpeed="0.00" departDelay="-0.33" arrival="216.00" arrivalLane="127497306#3_0" arrivalPos="463.62" arrivalSpeed="27.01" duration="144.00" routeLength="562.99" waitingTime="96.00" waitingCount="1" stopTime="0.00" timeLoss="120.85" rerouteNo="1" devices="tripinfo_veh16 routing_veh16" vType="veh_passenger@veh16" speedFactor="1.00" vaporized=""/>
    <tripinfo id="veh33" depart="149.00" departLane="127497306#0_1" departPos="5.10" departSpeed="0.00" departDelay="-0.17" arrival="218.00" arrivalLane="127497306#3_1" arrivalPos="463.62" arrivalSpeed="27.57" duration="69.00" routeLength="511.63" waitingTime="36.00" waitingCount="1" stopTime="0.00" timeLoss="49.60" rerouteNo="1" devices="tripinfo_veh33 routing_veh33" vType="veh_passenger@veh33" speedFactor="1.00" vaporized=""/>
    <tripinfo id="veh15" depart="67.00" departLane="-665146715_0" departPos="5.10" departSpeed="12.87" departDelay="-0.81" arrival="219.00" arrivalLane="127497306#3_0" arrivalPos="463.62" arrivalSpeed="26.95" duration="152.00" routeLength="629.52" waitingTime="89.00" waitingCount="2" stopTime="0.00" timeLoss="123.42" rerouteNo="1" devices="tripinfo_veh15 routing_veh15" vType="veh_passenger@veh15" speedFactor="1.00" vaporized=""/>
    <tripinfo id="veh17" depart="76.00" departLane="123936943#0_0" departPos="5.10" departSpeed="14.92" departDelay="-0.85" arrival="219.00" arrivalLane="127497306#3_2" arrivalPos="463.62" arrivalSpeed="27.20" duration="143.00" routeLength="753.31" waitingTime="67.00" waitingCount="1" stopTime="0.00" timeLoss="109.49" rerouteNo="1" devices="tripinfo_veh17 routing_veh17" vType="veh_passenger@veh17" speedFactor="1.00" vaporized=""/>
    <tripinfo id="veh20" depart="90.00" departLane="665146713_0" departPos="5.10" departSpeed="0.00" departDelay="-0.41" arrival="223.00" arrivalLane="127497306#3_2" arrivalPos="463.62" arrivalSpeed="26.90" duration="133.00" routeLength="686.52" waitingTime="64.00" waitingCount="1" stopTime="0.00" timeLoss="101.49" rerouteNo="1" devices="tripinfo_veh20 routing_veh20" vType="veh_passenger@veh20" speedFactor="1.00" vaporized=""/>
    <tripinfo id="veh22" depart="105.00" departLane="-221348491#0_0" departPos="0.11" departSpeed="0.00" departDelay="5.55" arrival="223.00" arrivalLane="127497306#3_0" arrivalPos="463.62" arrivalSpeed="26.95" duration="118.00" routeLength="578.83" waitingTime="72.00" waitingCount="1" stopTime="0.00" timeLoss="93.60" rerouteNo="1" devices="tripinfo_veh22 routing_veh22" vType="veh_passenger@veh22" speedFactor="1.00" vaporized=""/>
    <tripinfo id="veh13" depart="58.00" departLane="123936943#0_0" departPos="5.10" departSpeed="14.92" departDelay="-0.77" arrival="227.00" arrivalLane="127497306#3_1" arrivalPos="463.62" arrivalSpeed="27.52" duration="169.00" routeLength="753.31" waitingTime="78.00" waitingCount="3" stopTime="0.00" timeLoss="135.55" rerouteNo="1" devices="tripinfo_veh13 routing_veh13" vType="veh_passenger@veh13" speedFactor="1.00" vaporized=""/>
    <tripinfo id="veh40" depart="180.00" departLane="665146709_0" departPos="5.10" departSpeed="0.00" departDelay="-0.82" arrival="227.00" arrivalLane="665146714#4_0" arrivalPos="421.36" arrivalSpeed="21.10" duration="47.00" routeLength="607.70" waitingTime="0.00" waitingCount="0" stopTime="0.00" timeLoss="17.99" rerouteNo="1" devices="tripinfo_veh40 routing_veh40" vType="veh_passenger@veh40" speedFactor="1.00" vaporized=""/>
    <tripinfo id="veh10" depart="45.00" departLane="123936943#0_0" departPos="5.10" departSpeed="14.92" departDelay="-0.20" arrival="230.00" arrivalLane="127497306#3_1" arrivalPos="463.62" arrivalSpeed="27.23" duration="185.00" routeLength="752.57" waitingTime="92.00" waitingCount="4" stopTime="0.00" timeLoss="151.59" rerouteNo="1" devices="tripinfo_veh10 routing_veh10" vType="veh_passenger@veh10" speedFactor="1.00" vaporized=""/>
    <tripinfo id="veh29" depart="131.00" departLane="665146712_0" departPos="1.12" departSpeed="0.00" departDelay="-0.09" arrival="234.00" arrivalLane="127497306#3_1" arrivalPos="463.62" arrivalSpeed="27.00" duration="103.00" routeLength="720.34" waitingTime="31.00" waitingCount="1" stopTime="0.00" timeLoss="70.14" rerouteNo="1" devices="tripinfo_veh29 routing_veh29" vType="veh_passenger@veh29" speedFactor="1.00" vaporized=""/>
    <tripinfo id="veh8" depart="36.00" departLane="-23559783_1" departPos="5.10" departSpeed="22.88" departDelay="-0.16" arrival="238.00" arrivalLane="127497306#3_1" arrivalPos="463.62" arrivalSpeed="26.85" duration="202.00" routeLength="791.24" waitingTime="129.00" waitingCount="2" stopTime="0.00" timeLoss="166.57" rerouteNo="1" devices="tripinfo_veh8 routing_veh8" vType="veh_passenger@veh8" speedFactor="1.00" vaporized=""/>
    <tripinfo id="veh9" depart="40.00" departLane="-23559783_1" departPos="5.10" departSpeed="21.26" departDelay="-0.68" arrival="241.00" arrivalLane="127497306#3_2" arrivalPos="463.62" arrivalSpeed="26.81" duration="201.00" routeLength="791.24" waitingTime="126.00" waitingCount="2" stopTime="0.00" timeLoss="165.35" rerouteNo="1" devices="tripinfo_veh9 routing_veh9" vType="veh_passenger@veh9" speedFactor="1.00" vaporized=""/>
    <tripinfo id="veh25" depart="113.00" departLane="-23559783_1" departPos="5.10" departSpeed="14.70" departDelay="-0.01" arrival="258.00" arrivalLane="127497306#3_1" arrivalPos="463.62" arrivalSpeed="26.96" duration="145.00" routeLength="791.24" waitingTime="49.00" waitingCount="2" stopTime="0.00" timeLoss="108.75" rerouteNo="1" devices="tripinfo_veh25 routing_veh25" vType="veh_passenger@veh25" speedFactor="1.00" vaporized=""/>
    <tripinfo id="bus1" depart="60.00" departLane="-23559783_1" departPos="12.10" departSpeed="17.36" departDelay="-0.27" arrival="264.00" arrivalLane="665146714#4_0" arrivalPos="421.36" arrivalSpeed="21.88" duration="204.00" routeLength="779.63" waitingTime="103.00" waitingCount="2" stopTime="0.00" timeLoss="154.96" rerouteNo="1" devices="tripinfo_bus1 routing_bus1" vType="bus_bus@bus1" speedFactor="1.00" vaporized=""/>
    <tripinfo id="veh19" depart="85.00" departLane="-23559783_1" departPos="5.10" departSpeed="16.58" departDelay="-0.89" arrival="266.00" arrivalLane="665146714#4_0" arrivalPos="421.36" arrivalSpeed="22.04" duration="181.00" routeLength="786.63" waitingTime="78.00" waitingCount="2" stopTime="0.00" timeLoss="142.75" rerouteNo="1" devices="tripinfo_veh19 routing_veh19" vType="veh_passenger@veh19" speedFactor="1.00" vaporized=""/>
    <tripinfo id="veh57" depart="257.00" departLane="221348491#0_0" departPos="0.10" departSpeed="0.00" departDelay="-0.66" arrival="294.00" arrivalLane="665146714#4_0" arrivalPos="421.36" arrivalSpeed="22.02" duration="37.00" routeLength="522.62" waitingTime="0.00" waitingCount="0" stopTime="0.00" timeLoss="12.37" rerouteNo="1" devices="tripinfo_veh57 routing_veh57" vType="veh_passenger@veh57" speedFactor="1.00" vaporized=""/>
    <tripinfo id="veh34" depart="153.00" departLane="45014977_0" departPos="0.20" departSpeed="0.00" departDelay="-0.69" arrival="298.00" arrivalLane="665146714#4_0" arrivalPos="421.36" arrivalSpeed="21.39" duration="145.00" routeLength="763.12" waitingTime="74.00" waitingCount="2" stopTime="0.00" timeLoss="105.97" rerouteNo="1" devices="tripinfo_veh34 routing_veh34" vType="veh_passenger@veh34" speedFactor="1.00" vaporized=""/>
    <tripinfo id="veh56" depart="253.00" departLane="-665146715_0" departPos="5.10" departSpeed="12.49" departDelay="-0.14" arrival="308.00" arrivalLane="665146714#4_0" arrivalPos="421.36" arrivalSpeed="21.88" duration="55.00" routeLength="545.78" waitingTime="14.00" waitingCount="1" stopTime="0.00" timeLoss="27.53" rerouteNo="1" devices="tripinfo_veh56 routing_veh56" vType="veh_passenger@veh56" speedFactor="1.00" vaporized=""/>
    <tripinfo id="veh30" depart="135.00" departLane="-665146714#5_0" departPos="5.10" departSpeed="26.19" departDelay="-0.61" arrival="319.00" arrivalLane="23559783_0" arrivalPos="74.92" arrivalSpeed="17.93" duration="184.00" routeLength="846.50" waitingTime="88.00" waitingCount="4" stopTime="0.00" timeLoss="146.00" rerouteNo="1" devices="tripinfo_veh30 routing_veh30" vType="veh_passenger@veh30" speedFactor="1.00" vaporized=""/>
    <tripinfo id="veh66" depart="298.00" departLane="-665146714#5_0" departPos="5.10" departSpeed="20.15" departDelay="-0.35" arrival="325.00" arrivalLane="-665146714#2_0" arrivalPos="12.50" arrivalSpeed="3.31" duration="27.00" routeLength="456.07" waitingTime="0.00" waitingCount="0" stopTime="0.00" timeLoss="4.35" rerouteNo="1" devices="tripinfo_veh66 routing_veh66" vType="veh_passenger" speedFactor="0.91" vaporized=""/>
    <tripinfo id="veh35" depart="158.00" departLane="-665146714#5_0" departPos="5.10" departSpeed="22.66" departDelay="-0.22" arrival="343.00" arrivalLane="99952620#1_1" arrivalPos="63.37" arrivalSpeed="19.76" duration="185.00" routeLength="848.19" waitingTime="81.00" waitingCount="4" stopTime="0.00" timeLoss="144.65" rerouteNo="1" devices="tripinfo_veh35 routing_veh35" vType="veh_passenger@veh35" speedFactor="1.00" vaporized=""/>
</tripinfos>
